
                                 *****************
                                 * O   R   C   A *
                                 *****************

                                            #,                                       
                                            ###                                      
                                            ####                                     
                                            #####                                    
                                            ######                                   
                                           ########,                                 
                                     ,,################,,,,,                         
                               ,,#################################,,                 
                          ,,##########################################,,             
                       ,#########################################, ''#####,          
                    ,#############################################,,   '####,        
                  ,##################################################,,,,####,       
                ,###########''''           ''''###############################       
              ,#####''   ,,,,##########,,,,          '''####'''          '####       
            ,##' ,,,,###########################,,,                        '##       
           ' ,,###''''                  '''############,,,                           
         ,,##''                                '''############,,,,        ,,,,,,###''
      ,#''                                            '''#######################'''  
     '                                                          ''''####''''         
             ,#######,   #######,   ,#######,      ##                                
            ,#'     '#,  ##    ##  ,#'     '#,    #''#        ,####,    ,#,          
            ##       ##  ##   ,#'  ##            #'  '#       #'       ,# #          
            ##       ##  #######   ##           ,######,      #####,      #          
            '#,     ,#'  ##    ##  '#,     ,#' ,#      #,     #,   #      #          
             '#######'   ##     ##  '#######'  #'      '#     '####' #    #          



                #########################################################
                #                        -***-                          #
                #          Department of theory and spectroscopy        #
                #                                                       #
                #                      Frank Neese                      #
                #                                                       #
                #     Directorship, Architecture, Infrastructure        #
                #                    SHARK, DRIVERS                     #
                #        Core code/Algorithms in most modules           #
                #                                                       #
                #        Max Planck Institute fuer Kohlenforschung      #
                #                Kaiser Wilhelm Platz 1                 #
                #                 D-45470 Muelheim/Ruhr                 #
                #                      Germany                          #
                #                                                       #
                #                  All rights reserved                  #
                #                        -***-                          #
                #########################################################


                         Program Version 6.1.0  -  RELEASE   -
                                (GIT: $679e74b7b5$)
                          ($2025-06-10 18:02:51 +0200$)


 With contributions from (in alphabetic order):
[Max-Planck-Institut fuer Kohlenforschung]                               
  Daniel Aravena         : Magnetic Suceptibility                        
  Michael Atanasov       : Ab Initio Ligand Field Theory (pilot matlab implementation)
  Alexander A. Auer      : GIAO ZORA, VPT2 properties, NMR spectrum      
  Ute Becker             : All parallelization in ORCA, NUMFREQ, NUMCALC 
  Giovanni Bistoni       : ED, misc. LED, open-shell LED, HFLD           
  Dmytro Bykov           : pre 5.0 version of the SCF Hessian            
  Marcos Casanova-Páez   : Triplet and SCS-CIS(D). UHF-(DLPNO)-IP/EA/STEOM-CCSD. UHF-CVS-IP/STEOM-CCSD   
  Vijay G. Chilkuri      : MRCI spin determinant printing, contributions to CSF-ICE 
  Pauline Colinet        : FMM embedding                                 
  Dipayan Datta          : RHF DLPNO-CCSD density                        
  Achintya Kumar Dutta   : EOM-CC, STEOM-CC                              
  Nicolas Foglia         : Exact transition moments, OPA infrastructure, MCD improvements    
  Dmitry Ganyushin       : Spin-Orbit,Spin-Spin,Magnetic field MRCI      
  Miquel Garcia-Rates    : C-PCM and meta-GGA Hessian, CCSD/C-PCM, Gaussian charge scheme 
  Tiago L. C. Gouveia    : GS-ROHF, GS-ROCIS                             
  Yang Guo               : DLPNO-NEVPT2, F12-NEVPT2, CIM, IAO-localization        
  Andreas Hansen         : Spin unrestricted coupled pair/coupled cluster methods 
  Ingolf Harden          : AUTO-CI MPn and infrastructure                
  Benjamin Helmich-Paris : MC-RPA, TRAH-(SCF,CASSCF), AVAS, COSX integrals, SCF dyn. polar., MC-PDFT, srDFT 
  Lee Huntington         : MR-EOM, pCC                                   
  Robert Izsak           : Overlap fitted RIJCOSX, COSX-SCS-MP3, EOM     
  Riya Kayal             : Wick's Theorem for AUTO-CI, AUTO-CI UHF-CCSDT 
  Emily Kempfer          : AUTO-CI RHF CISDT and CCSDT, approximate NEVPT4
  Christian Kollmar      : KDIIS, OOCD, Brueckner-CCSD(T), CCSD density, CASPT2, CASPT2-K, improved NEVPT2 
  Axel Koslowski         : Symmetry handling                             
  Simone Kossmann        : meta-GGA functionals, TD-DFT gradient, OOMP2, (MP2 Hessian; deprecated post 5.0) 
  Lucas Lang             : DCDCAS, Hyperfine gauge corrections, ICE-SOC+SSC
  Marvin Lechner         : AUTO-CI (C++ implementation), FIC-MRCC        
  Spencer Leger          : CASSCF response                               
  Dagmar Lenk            : GEPOL surface, SMD, ORCA-2-JSON               
  Dimitrios Liakos       : Extrapolation schemes; Compound Job, Property file
  Dimitrios Manganas     : Further ROCIS development; embedding schemes. LFT, Crystal Embedding 
  Dimitrios Pantazis     : SARC Basis sets                               
  Anastasios Papadopoulos: AUTO-CI, single reference methods and gradients 
  Taras Petrenko         : pre 6.0 DFT Hessian and TD-DFT gradient,  ECA, NRVS 
  Petra Pikulova         : Analytic Raman intensities                    
  Peter Pinski           : DLPNO-MP2, DLPNO-MP2 Gradient                 
  Shashank Vittal Rao    : ES-AILFT, MagRelax                            
  Christoph Reimann      : Effective Core Potentials                     
  Marius Retegan         : Local ZFS, SOC                                
  Christoph Riplinger    : Optimizer, TS searches, QM/MM, DLPNO-CCSD(T), (RO)-DLPNO pert. Triples 
  Michael Roemelt        : Original ROCIS implementation, recursive CI coupling coefficients
  Masaaki Saitow         : Open-shell DLPNO-CCSD energy and density      
  Barbara Sandhoefer     : DKH picture change effects                    
  Yorick L. A. Schmerwitz: GMF and freeze-and-release deltaSCF, NEB S-IDPP initial path                    
  Kantharuban Sivalingam : CASSCF convergence/infrastructure, NEVPT2, NEVPT3, NEVPT4(SD), FIC-MRCI and CEPA variants
  Bernardo de Souza      : ESD, SOC TD-DFT                               
  Georgi L. Stoychev     : AutoAux, RI-MP2 NMR, DLPNO-MP2 response, X2C  
  Van Anh Tran           : RI-MP2 g-tensors                              
  Willem Van den Heuvel  : Paramagnetic NMR                              
  Zikuan Wang            : NOTCH, Electric field optimization            
  Frank Wennmohs         : Technical directorship and infrastructure     
  Hang Xu                : AUTO-CI-Response properties                   
                                                                         
[FACCTs GmbH]                                                            
  Markus Bursch, Nicolas Foglia, Miquel Garcia-Rates, Ingolf Harden, Hagen Neugebauer, Anastasios Papadopoulos, 
  Christoph Riplinger, Bernardo de Souza, Georgi L. Stoychev                                                    
                                                                 
  APM, various basis sets, CI-OPT, improved COSX, DLPNO-Multilevel,           
  DOCKER, DRACO, updates on ESD, Fragmentator, GOAT, IRC, LR-CPCM, L-BFGS, MBIS, meta-GGA TD-DFT gradient, ML-optimized integration grids, 
  MM, NACMEs, nearIR, NEB, NEB-TS, NL-DFT gradient (VV10), 2- and 3-layer-ONIOM, interface openCOSMO-RS, QMMM,   
  Crystal-QMMM, RESP, rigid body optimization, SF, symmetry and pop. for TD-DFT, various functionals, SOLVATOR                                   
                                                                         
[Other institutions]                                                     
  V. Asgeirsson          : NEB                                           
  Christoph Bannwarth    : sTDA-DFT, sTD-DFT, PBEh-3c, B97-3c, D3        
  Giovanni Bistoni       : ETS/NOCV, ADLD/ADEX, COVALED                  
  Martin Brehm           : Molecular dynamics                            
  Ronald Cardenas        : ETS/NOCV                                      
  Martina Colucci        : COVALED                                       
  Sebastian Ehlert       : rSCAN, r2SCAN, r2SCAN-3c, D4, dhf basis sets  
  Marvin Friede          : D4 for Fr, Ra, Ac-Lr                          
  Lars Goerigk           : TD-DFT with DH, B97 family of functionals     
  Stefan Grimme          : VdW corrections, initial TS optimization, DFT functionals, gCP, sTDA/sTD-DF 
  Waldemar Hujo          : DFT-NL                                        
  H. Jonsson             : NEB                                           
  Holger Kruse           : gCP                                           
  Marcel Mueller         : wB97X-3c, vDZP basis set                      
  Hagen Neugebauer       : wr2SCAN, Native XTB                           
  Gianluca Regni         : ADLD/ADEX                                     
  Tobias Risthaus        : pre 6.0 range-separated hybrid DFT and stability analysis
  Lukas Wittmann         : regularized MP2, r2SCAN double-hybrids, wr2SCAN        
                                                                         
We gratefully acknowledge several colleagues who have allowed us to      
interface, adapt or use parts of their codes:                            
  Ed Valeev, F. Pavosevic, A. Kumar             : LibInt (2-el integral package), F12 methods 
  Garnet Chan, S. Sharma, J. Yang, R. Olivares  : DMRG                   
  Ulf Ekstrom                                   : XCFun DFT Library      
  Mihaly Kallay                                 : mrcc  (arbitrary order and MRCC methods)
  Frank Weinhold                                : gennbo (NPA and NBO analysis)           
  Simon Mueller                                 : openCOSMO-RS                            
  Christopher J. Cramer and Donald G. Truhlar   : smd solvation model                     
  S Lehtola, MJT Oliveira, MAL Marques          : LibXC Library                           
  Liviu Ungur et al                             : ANISO software                          


 Your calculation uses the libint2 library for the computation of 2-el integrals
 For citations please refer to: http://libint.valeyev.net

 Your ORCA version has been built with support for libXC version: 7.0.0
 For citations please refer to: https://libxc.gitlab.io

 This ORCA versions uses:
   CBLAS   interface :  Fast vector & matrix operations
   LAPACKE interface :  Fast linear algebra routines
   SCALAPACK package :  Parallel linear algebra routines
   Shared memory     :  Shared parallel matrices


  ***********************************
  * Starting time: Fri Apr 10 14:50:39 2026
  * Host name:     Tobiass-MBP.fritz.box
  * Process ID:    2267
  * Working dir.:  /Users/user/QC/01_orca/cubes
  ***********************************

NOTE: MaxCore=2048 MB was set to SCF,MP2,MDCI,CIPSI,MRCI,RASCI and CIS
      => If you want to overwrite this, your respective input block should be placed after the MaxCore statement


***************************************
The coordinates will be read from file: opt.xyz
***************************************


Warning: RI is on but no J-basis has been assigned. Assigning Def2/J (nothing to worry about!)
================================================================================

----- Orbital basis set information -----
Your calculation utilizes the basis: 6-31G
   H-He, Li-Ne : W. J. Hehre, R. Ditchfield and J.A. Pople, J. Chem. Phys. 56, 2257 (1972).
                 Note: He and Ne are unpublished basis sets taken from the Gaussian program.
                 Note: Li and B from J. D. Dill and J. A. Pople, J. Chem. Phys. 62, 2921 (1975).
   Na - Ar     : M. M. Francl, W. J. Pietro, W. J. Hehre, J. S. Binkley, M. S. Gordon, 
                 D. J. DeFrees and J. A. Pople, J. Chem. Phys. 77, 3654 (1982).
   K - Zn      : V. A. Rassolov, J. A. Pople, M. A. Ratner, and T. L. Windus, J. Chem. Phys. 109, 1223 (1998).

----- AuxJ basis set information -----
Your calculation utilizes the auxiliary basis: def2/J
   H-Rn: F. Weigend, Phys. Chem. Chem. Phys. 8, 1057 (2006).
   Fr-Lr: K. Eichkorn, F. Weigend, O. Treutler, R. Ahlrichs; Theor. Chem. Acc. 97, 119 (1997).

================================================================================
                                        WARNINGS
                       Please study these warnings very carefully!
================================================================================


================================================================================
                                       INPUT FILE
================================================================================
NAME = freq.inp
|  1> ! FREQ B3LYP 6-31G KeepDens
|  2> 
|  3> %maxcore 2048
|  4> 
|  5> %pal
|  6>    nprocs 8
|  7> end
|  8> 
|  9> %scf Guess MORead
| 10>      MOInp "opt.gbw"
| 11> end
| 12> 
| 13> * xyzfile 0 1 opt.xyz
| 14> 
| 15>                          ****END OF INPUT****
================================================================================

                       ****************************
                       * Single Point Calculation *
                       ****************************

---------------------------------
CARTESIAN COORDINATES (ANGSTROEM)
---------------------------------
  C      0.048054    0.000041   -0.037107
  O     -0.062317   -0.000014    1.342324
  O      1.157376   -0.000009   -0.589833
  H      0.833893   -0.000051    1.741231
  C     -1.256931    0.000021   -0.726610
  C     -2.471494    0.000016   -0.018358
  C     -3.681612    0.000001   -0.716584
  C     -3.685493   -0.000010   -2.117926
  C     -2.475154   -0.000006   -2.824990
  C     -1.263139    0.000010   -2.132680
  H     -2.455522    0.000025    1.064603
  H     -4.619476   -0.000002   -0.170473
  H     -4.627913   -0.000022   -2.657102
  H     -2.478340   -0.000014   -3.910165
  H     -0.315145    0.000014   -2.659163

----------------------------
CARTESIAN COORDINATES (A.U.)
----------------------------
  NO LB      ZA    FRAG     MASS         X           Y           Z
   0 C     6.0000    0    12.011    0.090808    0.000077   -0.070123
   1 O     8.0000    0    15.999   -0.117762   -0.000027    2.536625
   2 O     8.0000    0    15.999    2.187124   -0.000018   -1.114624
   3 H     1.0000    0     1.008    1.575829   -0.000097    3.290451
   4 C     6.0000    0    12.011   -2.375255    0.000040   -1.373093
   5 C     6.0000    0    12.011   -4.670446    0.000030   -0.034691
   6 C     6.0000    0    12.011   -6.957238    0.000002   -1.354148
   7 C     6.0000    0    12.011   -6.964573   -0.000019   -4.002301
   8 C     6.0000    0    12.011   -4.677363   -0.000011   -5.338457
   9 C     6.0000    0    12.011   -2.386988    0.000019   -4.030182
  10 H     1.0000    0     1.008   -4.640264    0.000048    2.011808
  11 H     1.0000    0     1.008   -8.729545   -0.000005   -0.322148
  12 H     1.0000    0     1.008   -8.745487   -0.000042   -5.021195
  13 H     1.0000    0     1.008   -4.683385   -0.000027   -7.389140
  14 H     1.0000    0     1.008   -0.595538    0.000027   -5.025089

--------------------------------
INTERNAL COORDINATES (ANGSTROEM)
--------------------------------
 C      0   0   0     0.000000000000     0.00000000     0.00000000
 O      1   0   0     1.383839817140     0.00000000     0.00000000
 O      1   2   0     1.239396296176   121.05960252     0.00000000
 H      2   1   3     0.980978314365   109.41951323     0.00000000
 C      1   2   3     1.475939706614   113.27563294   179.99412709
 C      5   1   2     1.405981375241   121.90190962     0.00000000
 C      6   5   1     1.397106092921   119.76758806   179.99982363
 C      7   6   5     1.401347547829   120.14323997     0.00000000
 C      8   7   6     1.401734509203   120.13416367     0.00000000
 C      9   8   7     1.395804911841   119.97189373     0.00000000
 H      6   5   1     1.083078547683   119.40292802     0.00000000
 H      7   6   5     1.085277646534   119.80358779   180.00002848
 H      8   7   6     1.085755299791   119.93340367   179.99993661
 H      9   8   7     1.085179709482   120.12464206   179.99998677
 H     10   9   8     1.084378651307   121.21854532   180.00002606

---------------------------
INTERNAL COORDINATES (A.U.)
---------------------------
 C      0   0   0     0.000000000000     0.00000000     0.00000000
 O      1   0   0     2.615078267610     0.00000000     0.00000000
 O      1   2   0     2.342119571168   121.05960252     0.00000000
 H      2   1   3     1.853780357465   109.41951323     0.00000000
 C      1   2   3     2.789121835680   113.27563294   179.99412709
 C      5   1   2     2.656919748599   121.90190962     0.00000000
 C      6   5   1     2.640147895652   119.76758806   179.99982363
 C      7   6   5     2.648163083839   120.14323997     0.00000000
 C      8   7   6     2.648894334860   120.13416367     0.00000000
 C      9   8   7     2.637689019762   119.97189373     0.00000000
 H      6   5   1     2.046721836646   119.40292802     0.00000000
 H      7   6   5     2.050877531216   119.80358779   180.00002848
 H      8   7   6     2.051780165059   119.93340367   179.99993661
 H      9   8   7     2.050692457009   120.12464206   179.99998677
 H     10   9   8     2.049178676440   121.21854532   180.00002606

---------------------
BASIS SET INFORMATION
---------------------
There are 3 groups of distinct atoms

 Group   1 Type C   : 10s4p contracted to 3s2p pattern {631/31}
 Group   2 Type O   : 10s4p contracted to 3s2p pattern {631/31}
 Group   3 Type H   : 4s contracted to 2s pattern {31}

Atom   0C    basis set group =>   1
Atom   1O    basis set group =>   2
Atom   2O    basis set group =>   2
Atom   3H    basis set group =>   3
Atom   4C    basis set group =>   1
Atom   5C    basis set group =>   1
Atom   6C    basis set group =>   1
Atom   7C    basis set group =>   1
Atom   8C    basis set group =>   1
Atom   9C    basis set group =>   1
Atom  10H    basis set group =>   3
Atom  11H    basis set group =>   3
Atom  12H    basis set group =>   3
Atom  13H    basis set group =>   3
Atom  14H    basis set group =>   3
---------------------------------
AUXILIARY/J BASIS SET INFORMATION
---------------------------------
There are 3 groups of distinct atoms

 Group   1 Type C   : 12s5p4d2f1g contracted to 6s4p3d1f1g pattern {711111/2111/211/2/1}
 Group   2 Type O   : 12s5p4d2f1g contracted to 6s4p3d1f1g pattern {711111/2111/211/2/1}
 Group   3 Type H   : 5s2p1d contracted to 3s1p1d pattern {311/2/1}

Atom   0C    basis set group =>   1
Atom   1O    basis set group =>   2
Atom   2O    basis set group =>   2
Atom   3H    basis set group =>   3
Atom   4C    basis set group =>   1
Atom   5C    basis set group =>   1
Atom   6C    basis set group =>   1
Atom   7C    basis set group =>   1
Atom   8C    basis set group =>   1
Atom   9C    basis set group =>   1
Atom  10H    basis set group =>   3
Atom  11H    basis set group =>   3
Atom  12H    basis set group =>   3
Atom  13H    basis set group =>   3
Atom  14H    basis set group =>   3


           ************************************************************
           *        Program running with 8 parallel MPI-processes     *
           *              working on a common directory               *
           ************************************************************
------------------------------------------------------------------------------
                             ORCA STARTUP CALCULATIONS
                           -- RI-GTO INTEGRALS CHOSEN --
------------------------------------------------------------------------------
------------------------------------------------------------------------------
                   ___                                                        
                  /   \      - P O W E R E D   B Y -                         
                 /     \                                                     
                 |  |  |   _    _      __       _____    __    __             
                 |  |  |  | |  | |    /  \     |  _  \  |  |  /  |          
                  \  \/   | |  | |   /    \    | | | |  |  | /  /          
                 / \  \   | |__| |  /  /\  \   | |_| |  |  |/  /          
                |  |  |   |  __  | /  /__\  \  |    /   |      \           
                |  |  |   | |  | | |   __   |  |    \   |  |\   \          
                \     /   | |  | | |  |  |  |  | |\  \  |  | \   \       
                 \___/    |_|  |_| |__|  |__|  |_| \__\ |__|  \__/        
                                                                              
                      - O R C A' S   B I G   F R I E N D -                    
                                      &                                       
                       - I N T E G R A L  F E E D E R -                       
                                                                              
 v1 FN, 2020, v2 2021, v3 2022-2024                                           
------------------------------------------------------------------------------


----------------------
SHARK INTEGRAL PACKAGE
----------------------

Number of atoms                             ...     15
Number of basis functions                   ...     93
Number of shells                            ...     57
Maximum angular momentum                    ...      1
Integral batch strategy                     ... SHARK/LIBINT Hybrid
RI-J (if used) integral strategy            ... SPLIT-RIJ (Revised 2003 algorithm where possible)
Printlevel                                  ...      1
Contraction scheme used                     ... SEGMENTED contraction
Prescreening option                         ... SCHWARTZ
   Thresh                                   ... 1.000e-10
   Tcut                                     ... 1.000e-11
   Tpresel                                  ... 1.000e-11 
Coulomb Range Separation                    ... NOT USED
Exchange Range Separation                   ... NOT USED
Multipole approximations                    ... NOT USED
Finite Nucleus Model                        ... NOT USED
CABS basis                                  ... NOT available
Auxiliary Coulomb fitting basis             ... AVAILABLE
   # of basis functions in Aux-J            ...    507
   # of shells in Aux-J                     ...    165
   Maximum angular momentum in Aux-J        ...      4
Auxiliary J/K fitting basis                 ... NOT available
Auxiliary Correlation fitting basis         ... NOT available
Auxiliary 'external' fitting basis          ... NOT available

Checking pre-screening integrals            ... done (  0.0 sec) Dimension = 57
   => SHARK Basis and OBASIS are compatible. Storing Pre-screening
Shell pair information
Shell pair cut-off parameter TPreSel        ...   1.0e-11
Total number of shell pairs                 ...      1653
Shell pairs after pre-screening             ...      1530
Total number of primitive shell pairs       ...     11532
Primitive shell pairs kept                  ...      6709
          la=0 lb=0:    695 shell pairs
          la=1 lb=0:    668 shell pairs
          la=1 lb=1:    167 shell pairs

Checking whether 4 symmetric matrices of dimension 93 fit in memory
:Max Core in MB      =   2048.00
 MB in use           =      5.23
 MB left             =   2042.77
 MB needed           =      0.13
 Data fit in memory  = YES
Calculating RI/J V-Matrix + Cholesky decomp.... done (  0.0 sec)
Calculating Nuclear repulsion               ... done (  0.0 sec) ENN=    402.368833212572 Eh

Diagonalization of the overlap matrix:
Smallest eigenvalue                        ... 6.539e-04
Time for diagonalization                   ...    0.001 sec
Threshold for overlap eigenvalues          ... 1.000e-07
Number of eigenvalues below threshold      ... 0
Time for construction of square roots      ...    0.001 sec
Total time needed                          ...    0.004 sec

-------------------
DFT GRID GENERATION
-------------------

General Integration Accuracy     IntAcc      ... 4.388
Radial Grid Type                 RadialGrid  ... OptM3 with GC (2021)
Angular Grid (max. ang.)         AngularGrid ... 4 (Lebedev-302)
Angular grid pruning method      GridPruning ... 4 (adaptive)
Weight generation scheme         WeightScheme... mBecke (2022)
Basis function cutoff            BFCut       ... 1.0000e-10
Integration weight cutoff        WCut        ... 1.0000e-14
Partially contracted basis set               ... off
Rotationally invariant grid construction     ... off
Angular grids for H and He will be reduced by one unit

Total number of grid points                  ...    73576
Total number of batches                      ...     1159
Average number of points per batch           ...       63
Average number of grid points per atom       ...     4905

--------------------
COSX GRID GENERATION
--------------------

GRIDX 1
-------
General Integration Accuracy     IntAcc      ... 3.816
Radial Grid Type                 RadialGrid  ... OptM3 with GC (2021)
Angular Grid (max. ang.)         AngularGrid ... 1 (Lebedev-50)
Angular grid pruning method      GridPruning ... 4 (adaptive)
Weight generation scheme         WeightScheme... mBecke (2022)
Basis function cutoff            BFCut       ... 1.0000e-10
Integration weight cutoff        WCut        ... 1.0000e-14
Partially contracted basis set               ... on
Rotationally invariant grid construction     ... off
Angular grids for H and He will be reduced by one unit

Total number of grid points                  ...     9395
Total number of batches                      ...       81
Average number of points per batch           ...      115
Average number of grid points per atom       ...      626
UseSFitting                                  ... on

GRIDX 2
-------
General Integration Accuracy     IntAcc      ... 4.020
Radial Grid Type                 RadialGrid  ... OptM3 with GC (2021)
Angular Grid (max. ang.)         AngularGrid ... 2 (Lebedev-110)
Angular grid pruning method      GridPruning ... 4 (adaptive)
Weight generation scheme         WeightScheme... mBecke (2022)
Basis function cutoff            BFCut       ... 1.0000e-10
Integration weight cutoff        WCut        ... 1.0000e-14
Partially contracted basis set               ... on
Rotationally invariant grid construction     ... off
Angular grids for H and He will be reduced by one unit

Total number of grid points                  ...    20824
Total number of batches                      ...      169
Average number of points per batch           ...      123
Average number of grid points per atom       ...     1388
UseSFitting                                  ... on

GRIDX 3
-------
General Integration Accuracy     IntAcc      ... 4.338
Radial Grid Type                 RadialGrid  ... OptM3 with GC (2021)
Angular Grid (max. ang.)         AngularGrid ... 3 (Lebedev-194)
Angular grid pruning method      GridPruning ... 4 (adaptive)
Weight generation scheme         WeightScheme... mBecke (2022)
Basis function cutoff            BFCut       ... 1.0000e-10
Integration weight cutoff        WCut        ... 1.0000e-14
Partially contracted basis set               ... on
Rotationally invariant grid construction     ... off
Angular grids for H and He will be reduced by one unit

Total number of grid points                  ...    45887
Total number of batches                      ...      365
Average number of points per batch           ...      125
Average number of grid points per atom       ...     3059
UseSFitting                                  ... on
Grids setup in   0.5 sec
Initializing property integral containers    ... done (  0.0 sec)

SHARK setup successfully completed in   0.6 seconds

Maximum memory used throughout the entire STARTUP-calculation: 18.3 MB


           ************************************************************
           *        Program running with 8 parallel MPI-processes     *
           *              working on a common directory               *
           ************************************************************
-------------------------------------------------------------------------------
                                 ORCA GUESS
                   Start orbitals & Density for SCF / CASSCF
-------------------------------------------------------------------------------

------------
SCF SETTINGS
------------
Hamiltonian:
 Density Functional     Method          .... DFT(GTOs)
 Exchange Functional    Exchange        .... B88
   X-Alpha parameter    XAlpha          ....  0.666667
   Becke's b parameter  XBeta           ....  0.004200
 Correlation Functional Correlation     .... LYP
 LDA part of GGA corr.  LDAOpt          .... VWN-5
 Gradients option       PostSCFGGA      .... off
 Hybrid DFT is turned on
   Fraction HF Exchange ScalHFX         ....  0.200000
   Scaling of DF-GGA-X  ScalDFX         ....  0.720000
   Scaling of DF-GGA-C  ScalDFC         ....  0.810000
   Scaling of DF-LDA-C  ScalLDAC        ....  1.000000
   Perturbative correction              ....  0.000000
   NL short-range parameter             ....  4.800000
 RI-approximation to the Coulomb term is turned on
   Number of AuxJ basis functions       .... 507
   RIJ-COSX (HFX calculated with COS-X)).... on


General Settings:
 Integral files         IntName         .... freq
 Hartree-Fock type      HFTyp           .... RHF
 Total Charge           Charge          ....    0
 Multiplicity           Mult            ....    1
 Number of Electrons    NEL             ....   64
 Basis Dimension        Dim             ....   93
 Nuclear Repulsion      ENuc            ....    402.3688332126 Eh

Convergence Acceleration:
 AO-DIIS                CNVDIIS         .... on
   Start iteration      DIISMaxIt       ....    12
   Startup error        DIISStart       ....  0.200000
   # of expansion vecs  DIISMaxEq       ....     5
   Bias factor          DIISBfac        ....   1.050
   Max. coefficient     DIISMaxC        ....  10.000
 MO-DIIS                CNVKDIIS        .... off
 Trust-Rad. Augm. Hess. CNVTRAH         .... auto
   Auto Start mean grad. ratio tolernc. ....  1.125000
   Auto Start start iteration           ....     1
   Auto Start num. interpolation iter.  ....    10
   Max. Number of Micro iterations      ....    24
   Max. Number of Macro iterations      .... Maxiter - #DIIS iter
   Number of Davidson start vectors     ....     2
   Converg. threshold    (grad. norm)   ....   5.000e-05
   Grad. Scal. Fac. for Micro threshold ....   0.100
   Minimum threshold for Micro iter.    ....   1.000e-02
   NR start threshold (gradient norm)   ....   1.000e-04
   Initial trust radius                 ....   0.400
   Minimum AH scaling param. (alpha)    ....   1.000
   Maximum AH scaling param. (alpha)    .... 1000.000
   Quad. conv. algorithm                .... NR
   White noise on init. David. guess    .... on
   Maximum white noise                  ....   0.010
   Pseudo random numbers                .... off
   Inactive MOs                         .... canonical
   Orbital update algorithm             .... Taylor
   Preconditioner                       .... Diag
   Full preconditioner red. dimension   ....   250
 SOSCF                 CNVSOSCF           .... on
   Start iteration     SOSCFMaxIt         ....   150
   Startup grad/error  SOSCFStart         ....  0.003300
   Hessian update      SOSCFHessUp        .... L-BFGS
   Autom. constraints  SOSCFAutoConstrain .... off
 Level Shifting         CNVShift        .... on
   Level shift para.    LevelShift      ....    0.2500
   Turn off err/grad.   ShiftErr        ....    0.0010
 Zerner damping         CNVZerner       .... off
 Static damping         CNVDamp         .... on
   Fraction old density DampFac         ....    0.7000
   Max. Damping (<1)    DampMax         ....    0.9800
   Min. Damping (>=0)   DampMin         ....    0.0000
   Turn off err/grad.   DampErr         ....    0.1000

SCF Procedure:
 Maximum # iterations   MaxIter         ....   125
 SCF integral mode      SCFMode         .... Direct
   Integral package                     .... SHARK and LIBINT hybrid scheme
 Reset frequency        DirectResetFreq ....    20
 Integral Threshold     Thresh          ....  1.000e-10 Eh
 Primitive CutOff       TCut            ....  1.000e-11 Eh

Convergence Tolerance:
 Convergence Check Mode ConvCheckMode   .... Total+1el-Energy
 Convergence forced     ConvForced      .... 0
 Energy Change          TolE            ....  1.000e-06 Eh
 1-El. energy change                    ....  1.000e-03 Eh
 Orbital Gradient       TolG            ....  5.000e-05
 Orbital Rotation angle TolX            ....  5.000e-05
 DIIS Error             TolErr          ....  1.000e-06

---------------------
INITIAL GUESS: MOREAD
---------------------
Guess MOs are being read from file: opt.gbw
Input Geometry matches current geometry (good)
Input basis set matches current basis set (good)
Occupation numbers will be reassigned to an Aufbau configuration
MOs were renormalized
MOs were reorthogonalized (Cholesky)
                      ------------------
                      INITIAL GUESS DONE (   0.0 sec)
                      ------------------
             **** ENERGY FILE WAS UPDATED (freq.en.tmp) ****
Finished Guess after   0.2 sec
Maximum memory used throughout the entire GUESS-calculation: 6.6 MB


           ************************************************************
           *        Program running with 8 parallel MPI-processes     *
           *              working on a common directory               *
           ************************************************************

-------------------------------------------------------------------------------------------
                                      ORCA LEAN-SCF
                              memory conserving SCF solver
-------------------------------------------------------------------------------------------

----------------------------------------D-I-I-S--------------------------------------------
Iteration    Energy (Eh)           Delta-E    RMSDP     MaxDP     DIISErr   Damp  Time(sec)
-------------------------------------------------------------------------------------------
               ***  Starting incremental Fock matrix formation  ***
                              *** Initializing SOSCF ***
---------------------------------------S-O-S-C-F--------------------------------------
Iteration    Energy (Eh)           Delta-E    RMSDP     MaxDP     MaxGrad    Time(sec)
--------------------------------------------------------------------------------------
    1    -420.4685198412997238     0.00e+00  4.74e-06  2.03e-05  2.76e-06     0.3
               *** Restarting incremental Fock matrix formation ***
    2    -420.4685198414805996    -1.81e-10  5.93e-06  3.17e-05  6.15e-06     0.3
                  *** Gradient check signals convergence ***

               *****************************************************
               *                     SUCCESS                       *
               *           SCF CONVERGED AFTER   2 CYCLES          *
               *****************************************************

Recomputing exchange energy using gridx3       ... done (    0.263 sec)
Old exchange energy                            :    -10.954954562 Eh
New exchange energy                            :    -10.954988309 Eh
Exchange energy change after final integration :     -0.000033747 Eh
Total energy after final integration           :   -420.468553589 Eh
             **** ENERGY FILE WAS UPDATED (freq.en.tmp) ****

----------------
TOTAL SCF ENERGY
----------------

Total Energy       :       -420.46855358913893 Eh          -11441.53102 eV

Components:
Nuclear Repulsion  :        402.36883321257216 Eh           10949.01259 eV
Electronic Energy  :       -822.83735305484890 Eh          -22390.54269 eV
One Electron Energy:      -1368.22027356847639 Eh          -37231.16644 eV
Two Electron Energy:        545.38292051362748 Eh           14840.62375 eV

Virial components:
Potential Energy   :       -838.79653637715319 Eh          -22824.81415 eV
Kinetic Energy     :        418.32798278801431 Eh           11383.28313 eV
Virial Ratio       :          2.00511696776022

DFT components:
N(Alpha)           :       32.000022545611 electrons
N(Beta)            :       32.000022545611 electrons
N(Total)           :       64.000045091222 electrons
E(X)               :      -43.600036172183 Eh       
E(C)               :       -2.579129526585 Eh       
E(XC)              :      -46.179165698768 Eh       

---------------
SCF CONVERGENCE
---------------

  Last Energy change         ...    1.8088e-10  Tolerance :   1.0000e-06
  Last MAX-Density change    ...    3.1663e-05  Tolerance :   1.0000e-05
  Last RMS-Density change    ...    5.9261e-06  Tolerance :   1.0000e-06
  Last DIIS Error            ...    1.7929e-05  Tolerance :   1.0000e-06
  Last Orbital Gradient      ...    6.1487e-06  Tolerance :   5.0000e-05
  Last Orbital Rotation      ...    2.3043e-05  Tolerance :   5.0000e-05


----------------
ORBITAL ENERGIES
----------------

  NO   OCC          E(Eh)            E(eV) 
   0   2.0000     -19.190926      -522.2117 
   1   2.0000     -19.142559      -520.8955 
   2   2.0000     -10.328911      -281.0639 
   3   2.0000     -10.209387      -277.8115 
   4   2.0000     -10.201669      -277.6015 
   5   2.0000     -10.199770      -277.5498 
   6   2.0000     -10.198914      -277.5266 
   7   2.0000     -10.197036      -277.4754 
   8   2.0000     -10.196873      -277.4710 
   9   2.0000      -1.109454       -30.1898 
  10   2.0000      -1.021045       -27.7841 
  11   2.0000      -0.869897       -23.6711 
  12   2.0000      -0.776884       -21.1401 
  13   2.0000      -0.758334       -20.6353 
  14   2.0000      -0.668045       -18.1784 
  15   2.0000      -0.619947       -16.8696 
  16   2.0000      -0.591342       -16.0912 
  17   2.0000      -0.538974       -14.6662 
  18   2.0000      -0.494429       -13.4541 
  19   2.0000      -0.467590       -12.7238 
  20   2.0000      -0.456723       -12.4281 
  21   2.0000      -0.446806       -12.1582 
  22   2.0000      -0.444814       -12.1040 
  23   2.0000      -0.433719       -11.8021 
  24   2.0000      -0.391177       -10.6445 
  25   2.0000      -0.371095       -10.0980 
  26   2.0000      -0.365922        -9.9572 
  27   2.0000      -0.351860        -9.5746 
  28   2.0000      -0.315289        -8.5794 
  29   2.0000      -0.276955        -7.5363 
  30   2.0000      -0.263137        -7.1603 
  31   2.0000      -0.261147        -7.1062 
  32   0.0000      -0.053743        -1.4624 
  33   0.0000      -0.007449        -0.2027 
  34   0.0000       0.050091         1.3631 
  35   0.0000       0.067540         1.8378 
  36   0.0000       0.098135         2.6704 
  37   0.0000       0.141654         3.8546 
  38   0.0000       0.156662         4.2630 
  39   0.0000       0.165240         4.4964 
  40   0.0000       0.181759         4.9459 
  41   0.0000       0.190280         5.1778 
  42   0.0000       0.225957         6.1486 
*Only the first 10 virtual orbitals were printed.

                    ********************************
                    * MULLIKEN POPULATION ANALYSIS *
                    ********************************

-----------------------
MULLIKEN ATOMIC CHARGES
-----------------------
   0 C :    0.415726
   1 O :   -0.567527
   2 O :   -0.413120
   3 H :    0.388436
   4 C :    0.047759
   5 C :   -0.111855
   6 C :   -0.137885
   7 C :   -0.105465
   8 C :   -0.137509
   9 C :   -0.121887
  10 H :    0.168350
  11 H :    0.134745
  12 H :    0.135326
  13 H :    0.136090
  14 H :    0.168817
Sum of atomic charges:   -0.0000000

--------------------------------
MULLIKEN REDUCED ORBITAL CHARGES
--------------------------------
  0 C s       :     2.987831  s :     2.987831
      pz      :     0.772318  p :     2.596443
      px      :     0.969138
      py      :     0.854988

  1 O s       :     3.910025  s :     3.910025
      pz      :     1.338346  p :     4.657502
      px      :     1.501701
      py      :     1.817455

  2 O s       :     3.942065  s :     3.942065
      pz      :     1.660261  p :     4.471055
      px      :     1.393697
      py      :     1.417097

  3 H s       :     0.611564  s :     0.611564

  4 C s       :     3.168007  s :     3.168007
      pz      :     0.876394  p :     2.784234
      px      :     0.863415
      py      :     1.044425

  5 C s       :     3.207225  s :     3.207225
      pz      :     1.020157  p :     2.904631
      px      :     0.932381
      py      :     0.952093

  6 C s       :     3.207949  s :     3.207949
      pz      :     0.929875  p :     2.929935
      px      :     1.000083
      py      :     0.999977

  7 C s       :     3.204355  s :     3.204355
      pz      :     0.946359  p :     2.901110
      px      :     0.987240
      py      :     0.967511

  8 C s       :     3.207358  s :     3.207358
      pz      :     1.018187  p :     2.930150
      px      :     0.912988
      py      :     0.998975

  9 C s       :     3.213326  s :     3.213326
      pz      :     0.964521  p :     2.908561
      px      :     0.996562
      py      :     0.947478

 10 H s       :     0.831650  s :     0.831650

 11 H s       :     0.865255  s :     0.865255

 12 H s       :     0.864674  s :     0.864674

 13 H s       :     0.863910  s :     0.863910

 14 H s       :     0.831183  s :     0.831183



                     *******************************
                     * LOEWDIN POPULATION ANALYSIS *
                     *******************************

----------------------
LOEWDIN ATOMIC CHARGES
----------------------
   0 C :    0.248000
   1 O :   -0.342652
   2 O :   -0.295708
   3 H :    0.306520
   4 C :   -0.074141
   5 C :   -0.082854
   6 C :   -0.114665
   7 C :   -0.093431
   8 C :   -0.113724
   9 C :   -0.078677
  10 H :    0.137836
  11 H :    0.121397
  12 H :    0.121342
  13 H :    0.122095
  14 H :    0.138663

-------------------------------
LOEWDIN REDUCED ORBITAL CHARGES
-------------------------------
  0 C s       :     2.904518  s :     2.904518
      pz      :     0.924866  p :     2.847482
      px      :     1.075526
      py      :     0.847090

  1 O s       :     3.591051  s :     3.591051
      pz      :     1.389441  p :     4.751601
      px      :     1.548020
      py      :     1.814140

  2 O s       :     3.640193  s :     3.640193
      pz      :     1.733540  p :     4.655515
      px      :     1.495080
      py      :     1.426895

  3 H s       :     0.693480  s :     0.693480

  4 C s       :     2.914350  s :     2.914350
      pz      :     1.080373  p :     3.159791
      px      :     1.046035
      py      :     1.033383

  5 C s       :     2.943985  s :     2.943985
      pz      :     1.110287  p :     3.138869
      px      :     1.069256
      py      :     0.959327

  6 C s       :     2.943099  s :     2.943099
      pz      :     1.081064  p :     3.171566
      px      :     1.091252
      py      :     0.999250

  7 C s       :     2.947923  s :     2.947923
      pz      :     1.085817  p :     3.145509
      px      :     1.092946
      py      :     0.966745

  8 C s       :     2.942639  s :     2.942639
      pz      :     1.095624  p :     3.171085
      px      :     1.077117
      py      :     0.998344

  9 C s       :     2.944544  s :     2.944544
      pz      :     1.074583  p :     3.134133
      px      :     1.104724
      py      :     0.954826

 10 H s       :     0.862164  s :     0.862164

 11 H s       :     0.878603  s :     0.878603

 12 H s       :     0.878658  s :     0.878658

 13 H s       :     0.877905  s :     0.877905

 14 H s       :     0.861337  s :     0.861337



                      *****************************
                      * MAYER POPULATION ANALYSIS *
                      *****************************

  NA   - Mulliken gross atomic population
  ZA   - Total nuclear charge
  QA   - Mulliken gross atomic charge
  VA   - Mayer's total valence
  BVA  - Mayer's bonded valence
  FA   - Mayer's free valence

  ATOM       NA         ZA         QA         VA         BVA        FA
  0 C      5.5843     6.0000     0.4157     3.8727     3.8727    -0.0000
  1 O      8.5675     8.0000    -0.5675     1.8195     1.8195     0.0000
  2 O      8.4131     8.0000    -0.4131     2.0335     2.0335    -0.0000
  3 H      0.6116     1.0000     0.3884     0.8328     0.8328     0.0000
  4 C      5.9522     6.0000     0.0478     3.8021     3.8021    -0.0000
  5 C      6.1119     6.0000    -0.1119     3.8610     3.8610    -0.0000
  6 C      6.1379     6.0000    -0.1379     3.8848     3.8848    -0.0000
  7 C      6.1055     6.0000    -0.1055     3.8847     3.8847    -0.0000
  8 C      6.1375     6.0000    -0.1375     3.8833     3.8833    -0.0000
  9 C      6.1219     6.0000    -0.1219     3.8734     3.8734     0.0000
 10 H      0.8316     1.0000     0.1684     0.9402     0.9402     0.0000
 11 H      0.8653     1.0000     0.1347     0.9427     0.9427    -0.0000
 12 H      0.8647     1.0000     0.1353     0.9415     0.9415     0.0000
 13 H      0.8639     1.0000     0.1361     0.9423     0.9423    -0.0000
 14 H      0.8312     1.0000     0.1688     0.9421     0.9421     0.0000

  Mayer bond orders larger than 0.100000
B(  0-C ,  1-O ) :   0.9828 B(  0-C ,  2-O ) :   1.8673 B(  0-C ,  4-C ) :   0.9486 
B(  1-O ,  3-H ) :   0.7761 B(  4-C ,  5-C ) :   1.3898 B(  4-C ,  9-C ) :   1.3899 
B(  5-C ,  6-C ) :   1.4272 B(  5-C , 10-H ) :   0.9187 B(  6-C ,  7-C ) :   1.4347 
B(  6-C , 11-H ) :   0.9322 B(  7-C ,  8-C ) :   1.4298 B(  7-C , 12-H ) :   0.9335 
B(  8-C ,  9-C ) :   1.4316 B(  8-C , 13-H ) :   0.9318 B(  9-C , 14-H ) :   0.9183 


-------
TIMINGS
-------

Total SCF time: 0 days 0 hours 0 min 1 sec 

Total time                  ....       1.361 sec
Sum of individual times     ....       1.123 sec  ( 82.5%)

SCF preparation             ....       0.285 sec  ( 20.9%)
Fock matrix formation       ....       0.761 sec  ( 55.9%)
  Startup                   ....       0.006 sec  (  0.7% of F)
  Split-RI-J                ....       0.052 sec  (  6.8% of F)
  Chain of spheres X        ....       0.659 sec  ( 86.7% of F)
  XC integration            ....       0.174 sec  ( 22.9% of F)
    Basis function eval.    ....       0.035 sec  ( 20.3% of XC)
    Density eval.           ....       0.014 sec  (  8.0% of XC)
    XC-Functional eval.     ....       0.006 sec  (  3.3% of XC)
    XC-Potential eval.      ....       0.016 sec  (  9.2% of XC)
Diagonalization             ....       0.000 sec  (  0.0%)
Density matrix formation    ....       0.006 sec  (  0.4%)
Total Energy calculation    ....       0.005 sec  (  0.4%)
Population analysis         ....       0.022 sec  (  1.6%)
Orbital Transformation      ....       0.007 sec  (  0.5%)
Orbital Orthonormalization  ....       0.000 sec  (  0.0%)
DIIS solution               ....       0.011 sec  (  0.8%)
SOSCF solution              ....       0.027 sec  (  1.9%)
Finished LeanSCF after   1.4 sec

Maximum memory used throughout the entire LEANSCF-calculation: 10.6 MB


           ************************************************************
           *        Program running with 8 parallel MPI-processes     *
           *              working on a common directory               *
           ************************************************************

------------------------------------------------------------------------------
                         ORCA PROPERTY INTEGRAL CALCULATIONS
------------------------------------------------------------------------------

GBWName                                   ... freq.gbw
Number of atoms                           ...     15
Number of basis functions                 ...     93
Max core memory                           ...   2048 MB

Dipole integrals                          ... YES
Quadrupole integrals                      ...  NO
Linear momentum integrals                 ...  NO
Angular momentum integrals                ...  NO
Higher moments length integrals           ...  NO
Higher moments velocity integrals         ...  NO
Kinetic energy integrals                  ...  NO
GIAO right hand sides                     ...  NO
GIAO dipole derivative integrals          ...  NO
SOC integrals                             ...  NO
EPR diamagnetic integrals (GIAO)          ...  NO
EPR gauge integrals                       ...  NO
Field gradient integrals                  ...  NO (   0 nuclei)
Spin-dipole/Fermi contact integrals       ...  NO (   0 nuclei)
Contact density integrals                 ...  NO (   0 nuclei)
Nucleus-orbit integrals                   ...  NO (   0 nuclei)
Geometric perturbations                   ... YES (  15 nuclei)

Choice of electric origin   ... Center of mass
Position of electric origin ... ( -2.6901,  0.0000, -1.5101) 
Choice of magnetic origin   ... GIAO
Position of magnetic origin ... (  0.0000,  0.0000,  0.0000) 

Calculating integrals                     ... Electric Dipole (Length)     done (  0.0 sec)
Calculating integrals                     ... Geometrical perturbation right hand sides

-----------------------
GEOMETRIC PERTURBATIONS (15 nuclei)
-----------------------

MaxCore                            ...   2048 MB
Number of batches                  ...      1

BATCH   0: Atoms    0 -   14 ( 45 perturbations)
   => H(core) and overlap derivative integrals     ... done (     0.0 sec)
   => Making and storing internal U-coefficients   ... done (     0.0 sec)
   => RI-J derivative integrals                    ... done (     0.4 sec)
   => RI-J response operators                      ... done (     0.1 sec)
   => Chain of spheres derivative integrals        ... done (     0.7 sec)
   => Chain of spheres response operator           ... done (     0.6 sec)
   => XC derivative integrals                      ... done (     1.9 sec)
   => XC response operators                        ... done (     0.6 sec)
   => Completing and storing right hand sides      ... done (     0.0 sec)
   => Total time for right hand sides =   4.5 sec

  geometrical perturbations done (  4.5 sec)

Property integrals calculated in   4.5 sec

Maximum memory used throughout the entire PROPINT-calculation: 50.9 MB

-------------------------   --------------------
FINAL SINGLE POINT ENERGY      -420.468553589139
-------------------------   --------------------



           ************************************************************
           *        Program running with 8 parallel MPI-processes     *
           *              working on a common directory               *
           ************************************************************
------------------------------------------------------------------------------
                            ORCA SCF RESPONSE CALCULATION
------------------------------------------------------------------------------

GBWName                                 ... freq.gbw
Number of atoms                         ...     15
Number of basis functions               ...     93
Max core memory                         ...   2048 MB

Electric field perturbation             ...  NO
Quadrupolar field perturbation          ...  NO
Magnetic field perturbation (no GIAO)   ...  NO
Magnetic field perturbation (with GIAO) ...  NO
Linear momentum (velocity) perturbation ...  NO
Spin-orbit coupling perturbation        ...  NO
Choice of electric origin               ... Center of mass
Position of electric origin             ...    -2.690052     0.000007    -1.510105
Choice of magnetic origin               ... GIAO
Position of magnetic origin             ...     0.000000     0.000000     0.000000
Nuclear geometric perturbations         ... YES (  45 perturbations)
Nucleus-orbit perturbations             ...  NO (   0 perturbations)
Spin-dipole/Fermi contact perturbations ...  NO (   0 perturbations)

Total number of real perturbations      ...     45
Total number of imaginary perturbations ...      0
Total number of triplet perturbations   ...      0
Total number of SOC perturbations       ...      0

Using XC Grid                  ... (freq.grid_cpscf.tmp) 
Recalculating density on grid  ... (freq.grho_cpscf0.tmp) done
Calculating the xc-kernel      ... (freq.fxc_cpscf0.tmp) done

                                **********************
                                * REAL PERTURBATIONS *
                                **********************



-------------------
SHARK CP-SCF DRIVER
-------------------

Dimension of the orbital basis          ...     93
Dimension of the CPSCF-problem          ...   1952
Number of operators                     ...      1
Max. number of iterations               ...    128
Convergence Tolerance                   ... 1.0e-03
Number of perturbations                 ...     45
Perturbation type                       ... REAL

----------------------------
POPLE LINEAR EQUATION SOLVER
----------------------------

  ITERATION   0:   ||err||_max =   1.1653e+00 (   0.5 sec   0/ 45 done)
  ITERATION   1:   ||err||_max =   9.0010e-02 (   0.5 sec   0/ 45 done)
  ITERATION   2:   ||err||_max =   2.5626e-02 (   0.5 sec  14/ 45 done)
  ITERATION   3:   ||err||_max =   1.3266e-02 (   0.4 sec  17/ 45 done)
  ITERATION   4:   ||err||_max =   3.3824e-03 (   0.4 sec  26/ 45 done)
  ITERATION   5:   ||err||_max =   1.1251e-03 (   0.3 sec  43/ 45 done)
  ITERATION   6:   ||err||_max =   2.5312e-04 (   0.2 sec  45/ 45 done)

CP-SCF equations solved in   2.9 sec
Response densities calculated in   0.0 sec

Maximum memory used throughout the entire SCFRESP-calculation: 51.9 MB


           ************************************************************
           *        Program running with 8 parallel MPI-processes     *
           *              working on a common directory               *
           ************************************************************

------------------------------------------------------------------------------
                              ORCA PROPERTY CALCULATIONS
------------------------------------------------------------------------------

GBWName                                 ... freq.gbw
Number of atoms                         ...     15
Number of basis functions               ...     93
Max core memory                         ...   2048 MB

Electric properties:
Dipole moment                           ... YES
Quadrupole moment                       ...  NO
Static polarizability (Dipole/Dipole)   ...  NO
Static polarizability (Dipole/Quad.)    ...  NO
Static polarizability (Quad./Quad.)     ...  NO
Static polarizability (Velocity)        ...  NO
Static hyperpolarizability              ...  NO

Atomic electric properties:
Dipole moment                           ...  NO
Quadrupole moment                       ...  NO
Static polarizability                   ...  NO

Choice of electric origin               ... Center of mass
Position of electric origin             ...    -2.690052     0.000007    -1.510105

General magnetic properties:
Magnetizability                         ...  NO

EPR properties:
g-Tensor (aka g-matrix)                 ...  NO
Zero-Field splitting spin-orbit         ...  NO
Zero-field splitting spin-spin          ...  NO
Hyperfine couplings                     ...  NO (   0 nuclei)
Quadrupole couplings                    ...  NO (   0 nuclei)
Contact density                         ...  NO (   0 nuclei)

NMR properties:
Chemical shifts                         ...  NO (   0 nuclei)
Spin-rotation constants                 ...  NO (   0 nuclei)
Spin-spin couplings                     ...  NO (   0 nuclei,    0 pairs)

Choice of magnetic origin               ... GIAO
Position of magnetic origin             ...     0.000000     0.000000     0.000000

Properties with geometric perturbations:
SCF Hessian                             ... YES
IR spectrum                             ... YES
VCD spectrum                            ...  NO
X-ray spectroscopy properties:
SCF XES/XAS/RIXS spectra                ...  NO

SCF SOC stabilization energy            ...  NO
Diagonal Born-Oppenheimer correction    ...  NO

-------------
DIPOLE MOMENT
-------------

Method             : SCF
Type of density    : Electron Density
Multiplicity       :   1
Irrep              :   0
Energy             :  -420.4685535891389350 Eh
Basis              : AO
                                X                 Y                 Z
Electronic contribution:      3.931565159       0.000072904       1.785085851
Nuclear contribution   :     -4.746493335      -0.000069322      -1.650565467
                        -----------------------------------------
Total Dipole Moment    :     -0.814928177       0.000003581       0.134520384
                        -----------------------------------------
Magnitude (a.u.)       :      0.825956214
Magnitude (Debye)      :      2.099413853



--------------------
Rotational spectrum 
--------------------
 
Rotational constants in cm-1:             0.127111             0.040541             0.030738 
Rotational constants in MHz :          3810.678436          1215.389842           921.487653 

Dipole components along the rotational axes: 
x,y,z [a.u.] :    -0.630446     0.533612     0.000004 
x,y,z [Debye]:    -1.602465     1.356335     0.000010 

 

Dipole moment calculation done in   0.0 sec 

-----------
SCF HESSIAN
-----------

Occupied/Occupied contributions to the Hessian:
   => Occupied/Occupied contributions              ... done (  0.0 sec)
Perturbed density contributions to the Hessian:
   => Perturbed density contributions              ... done (  0.0 sec)
Explicit contributions to the Hessian:
   => Nuclear repulsion Hessian                    ... done (  0.0 sec)
   => HCore and overlap Hessian                    ... done (  0.1 sec)
   => RI-J Hessian                                 ... done (  0.4 sec)
   => COSX Hessian                                 ... done (  6.8 sec)
   => XC-Hessian                                   ... done (  2.1 sec)
   => Explicit contributions done
Dipole derivatives                                 ... done (  0.0 sec)
Mass weighting the Hessian           ... done
Calculating normal modes             ... done
Scaling frequencies                  ... done

-----------------------
VIBRATIONAL FREQUENCIES
-----------------------

Scaling factor for frequencies =  1.000000000  (already applied!)

     0:       0.00 cm**-1
     1:       0.00 cm**-1
     2:       0.00 cm**-1
     3:       0.00 cm**-1
     4:       0.00 cm**-1
     5:       0.00 cm**-1
     6:      76.32 cm**-1
     7:     164.10 cm**-1
     8:     215.43 cm**-1
     9:     387.58 cm**-1
    10:     425.73 cm**-1
    11:     443.88 cm**-1
    12:     501.26 cm**-1
    13:     613.89 cm**-1
    14:     633.90 cm**-1
    15:     649.65 cm**-1
    16:     715.01 cm**-1
    17:     728.48 cm**-1
    18:     780.22 cm**-1
    19:     829.66 cm**-1
    20:     889.84 cm**-1
    21:     986.84 cm**-1
    22:    1020.85 cm**-1
    23:    1034.84 cm**-1
    24:    1046.55 cm**-1
    25:    1059.34 cm**-1
    26:    1081.30 cm**-1
    27:    1127.83 cm**-1
    28:    1199.79 cm**-1
    29:    1224.00 cm**-1
    30:    1236.81 cm**-1
    31:    1374.41 cm**-1
    32:    1384.72 cm**-1
    33:    1388.09 cm**-1
    34:    1508.73 cm**-1
    35:    1550.83 cm**-1
    36:    1636.43 cm**-1
    37:    1661.87 cm**-1
    38:    1725.43 cm**-1
    39:    3194.53 cm**-1
    40:    3207.69 cm**-1
    41:    3219.18 cm**-1
    42:    3233.96 cm**-1
    43:    3246.28 cm**-1
    44:    3623.70 cm**-1


------------
NORMAL MODES
------------

These modes are the Cartesian displacements weighted by the diagonal matrix
M(i,i)=1/sqrt(m[i]) where m[i] is the mass of the displaced atom
Thus, these vectors are normalized but *not* orthogonal

                  0          1          2          3          4          5    
      0       0.000000   0.000000   0.000000   0.000000   0.000000   0.000000
      1       0.000000   0.000000   0.000000   0.000000   0.000000   0.000000
      2       0.000000   0.000000   0.000000   0.000000   0.000000   0.000000
      3       0.000000   0.000000   0.000000   0.000000   0.000000   0.000000
      4       0.000000   0.000000   0.000000   0.000000   0.000000   0.000000
      5       0.000000   0.000000   0.000000   0.000000   0.000000   0.000000
      6       0.000000   0.000000   0.000000   0.000000   0.000000   0.000000
      7       0.000000   0.000000   0.000000   0.000000   0.000000   0.000000
      8       0.000000   0.000000   0.000000   0.000000   0.000000   0.000000
      9       0.000000   0.000000   0.000000   0.000000   0.000000   0.000000
     10       0.000000   0.000000   0.000000   0.000000   0.000000   0.000000
     11       0.000000   0.000000   0.000000   0.000000   0.000000   0.000000
     12       0.000000   0.000000   0.000000   0.000000   0.000000   0.000000
     13       0.000000   0.000000   0.000000   0.000000   0.000000   0.000000
     14       0.000000   0.000000   0.000000   0.000000   0.000000   0.000000
     15       0.000000   0.000000   0.000000   0.000000   0.000000   0.000000
     16       0.000000   0.000000   0.000000   0.000000   0.000000   0.000000
     17       0.000000   0.000000   0.000000   0.000000   0.000000   0.000000
     18       0.000000   0.000000   0.000000   0.000000   0.000000   0.000000
     19       0.000000   0.000000   0.000000   0.000000   0.000000   0.000000
     20       0.000000   0.000000   0.000000   0.000000   0.000000   0.000000
     21       0.000000   0.000000   0.000000   0.000000   0.000000   0.000000
     22       0.000000   0.000000   0.000000   0.000000   0.000000   0.000000
     23       0.000000   0.000000   0.000000   0.000000   0.000000   0.000000
     24       0.000000   0.000000   0.000000   0.000000   0.000000   0.000000
     25       0.000000   0.000000   0.000000   0.000000   0.000000   0.000000
     26       0.000000   0.000000   0.000000   0.000000   0.000000   0.000000
     27       0.000000   0.000000   0.000000   0.000000   0.000000   0.000000
     28       0.000000   0.000000   0.000000   0.000000   0.000000   0.000000
     29       0.000000   0.000000   0.000000   0.000000   0.000000   0.000000
     30       0.000000   0.000000   0.000000   0.000000   0.000000   0.000000
     31       0.000000   0.000000   0.000000   0.000000   0.000000   0.000000
     32       0.000000   0.000000   0.000000   0.000000   0.000000   0.000000
     33       0.000000   0.000000   0.000000   0.000000   0.000000   0.000000
     34       0.000000   0.000000   0.000000   0.000000   0.000000   0.000000
     35       0.000000   0.000000   0.000000   0.000000   0.000000   0.000000
     36       0.000000   0.000000   0.000000   0.000000   0.000000   0.000000
     37       0.000000   0.000000   0.000000   0.000000   0.000000   0.000000
     38       0.000000   0.000000   0.000000   0.000000   0.000000   0.000000
     39       0.000000   0.000000   0.000000   0.000000   0.000000   0.000000
     40       0.000000   0.000000   0.000000   0.000000   0.000000   0.000000
     41       0.000000   0.000000   0.000000   0.000000   0.000000   0.000000
     42       0.000000   0.000000   0.000000   0.000000   0.000000   0.000000
     43       0.000000   0.000000   0.000000   0.000000   0.000000   0.000000
     44       0.000000   0.000000   0.000000   0.000000   0.000000   0.000000
                  6          7          8          9         10         11    
      0       0.000002   0.000001  -0.039902   0.143138   0.000005  -0.000008
      1       0.032572   0.040829   0.000008   0.000000  -0.007596   0.170762
      2       0.000006   0.000006   0.047273   0.108011   0.000005   0.000006
      3      -0.000003   0.000012   0.287477   0.324538   0.000013   0.000002
      4      -0.384038  -0.121825   0.000007   0.000021  -0.011579  -0.020622
      5      -0.000002   0.000006   0.056914   0.147310   0.000007   0.000014
      6       0.000015  -0.000014  -0.169292   0.230710   0.000005  -0.000024
      7       0.370865  -0.164316   0.000005  -0.000001   0.010687  -0.055000
      8       0.000001  -0.000002  -0.222689   0.256035   0.000004   0.000007
      9       0.000003   0.000023   0.386295   0.432992   0.000018   0.000020
     10      -0.317843  -0.380217  -0.000086  -0.000180   0.078314  -0.456863
     11      -0.000005  -0.000030  -0.161142  -0.083119   0.000004  -0.000046
     12      -0.000000  -0.000001  -0.111958   0.028957   0.000001   0.000002
     13       0.007825   0.283118  -0.000008  -0.000006  -0.014857   0.257765
     14      -0.000001   0.000002   0.181695  -0.019178   0.000001  -0.000015
     15      -0.000002  -0.000002  -0.185444  -0.086731  -0.000006   0.000016
     16       0.187681   0.234189  -0.000011  -0.000028   0.211565  -0.073813
     17      -0.000002  -0.000002   0.054903  -0.154539  -0.000009  -0.000003
     18      -0.000005   0.000000  -0.101020  -0.136423  -0.000005   0.000014
     19       0.201397  -0.052525   0.000007   0.000017  -0.194736  -0.140059
     20      -0.000002  -0.000003  -0.119916  -0.145322  -0.000006   0.000007
     21      -0.000006  -0.000000   0.064735  -0.258442  -0.000010   0.000001
     22      -0.006295  -0.257260   0.000013   0.000002  -0.010162   0.209089
     23       0.000000  -0.000003  -0.124392  -0.141101  -0.000006   0.000005
     24      -0.000002   0.000002   0.145164  -0.217507  -0.000007  -0.000003
     25      -0.204386  -0.047648  -0.000008  -0.000010   0.207758  -0.113237
     26       0.000002  -0.000002   0.019449  -0.067315   0.000001  -0.000007
     27      -0.000000  -0.000001   0.036691  -0.169890  -0.000002   0.000004
     28      -0.175147   0.233778  -0.000012   0.000013  -0.202380  -0.102420
     29      -0.000001  -0.000000   0.181701  -0.060101   0.000001  -0.000018
     30      -0.000010  -0.000011  -0.330649  -0.189305  -0.000018   0.000024
     31       0.325126   0.313925  -0.000016  -0.000054   0.490672  -0.268088
     32      -0.000003  -0.000002   0.061573  -0.147114  -0.000011  -0.000001
     33      -0.000006   0.000004  -0.174504  -0.087921   0.000003   0.000021
     34       0.363597  -0.161429   0.000016   0.000050  -0.417942  -0.357426
     35      -0.000001   0.000001  -0.245510  -0.059145   0.000004   0.000016
     36      -0.000010   0.000001   0.126545  -0.266010  -0.000007  -0.000005
     37      -0.012668  -0.558004   0.000028   0.000005  -0.020971   0.442283
     38       0.000005  -0.000001  -0.232503  -0.128594  -0.000011   0.000012
     39      -0.000000   0.000007   0.289812  -0.155691  -0.000003  -0.000015
     40      -0.370311  -0.152697  -0.000011  -0.000029   0.457106  -0.301727
     41       0.000001  -0.000002   0.019311  -0.069322   0.000001  -0.000007
     42      -0.000002   0.000001   0.111319  -0.242978  -0.000006   0.000003
     43      -0.298918   0.302934  -0.000007   0.000031  -0.449015  -0.337417
     44      -0.000003   0.000001   0.321191  -0.200505  -0.000007  -0.000020
                 12         13         14         15         16         17    
      0       0.203479  -0.000034  -0.185656   0.016003   0.000002   0.000003
      1       0.000005   0.051607  -0.000051   0.000007  -0.271146   0.158708
      2      -0.178033  -0.000038  -0.105223   0.019769  -0.000003   0.000003
      3      -0.147778   0.000009   0.139180  -0.000161  -0.000009   0.000001
      4      -0.000001   0.062342  -0.000050   0.000011   0.090115  -0.045247
      5      -0.291312  -0.000038  -0.189041   0.008133   0.000025  -0.000009
      6       0.342371   0.000003  -0.004132  -0.007419   0.000010  -0.000003
      7      -0.000015   0.009121  -0.000005   0.000000   0.082536  -0.048659
      8       0.014861   0.000053   0.266812  -0.040206  -0.000017   0.000005
      9      -0.333868   0.000055   0.364958  -0.016926  -0.000025   0.000005
     10      -0.000007  -0.964626   0.000791  -0.000164  -0.468605   0.143887
     11       0.112187  -0.000197  -0.681000   0.046441   0.000019  -0.000002
     12      -0.047113  -0.000038  -0.159748   0.088526  -0.000003   0.000004
     13       0.000058  -0.060497   0.000037   0.000000  -0.097963  -0.074057
     14       0.171388  -0.000016  -0.091647  -0.118843  -0.000004   0.000004
     15      -0.187684  -0.000015  -0.094162  -0.083911  -0.000005   0.000003
     16      -0.000003  -0.023977   0.000031  -0.000013   0.163235   0.002042
     17       0.103687   0.000034   0.087409  -0.317056   0.000003  -0.000002
     18      -0.143231  -0.000004  -0.080860  -0.331872  -0.000004   0.000004
     19      -0.000030   0.036545  -0.000034   0.000006  -0.173737  -0.075386
     20      -0.048219   0.000026   0.109430   0.071610   0.000008  -0.000004
     21      -0.031538   0.000043   0.153713  -0.089325   0.000008  -0.000005
     22       0.000026  -0.051873   0.000046  -0.000010   0.158279  -0.009866
     23      -0.064697   0.000023   0.095344   0.122471   0.000006  -0.000003
     24       0.047469   0.000018   0.080173   0.094729   0.000002  -0.000002
     25      -0.000020   0.043459  -0.000035   0.000004  -0.170976  -0.076718
     26       0.112497  -0.000020  -0.058396   0.341777  -0.000007   0.000005
     27      -0.046150   0.000006   0.063612   0.308832   0.000001  -0.000002
     28      -0.000003  -0.035452   0.000033  -0.000004   0.156157   0.008589
     29       0.244032  -0.000017  -0.092698  -0.065115  -0.000012   0.000005
     30      -0.363856   0.000013   0.068352   0.062930   0.000000  -0.000011
     31      -0.000040   0.045394  -0.000012  -0.000008   0.338705   0.440859
     32       0.106339   0.000033   0.086673  -0.317326   0.000001  -0.000006
     33      -0.199160  -0.000027  -0.162773  -0.234696  -0.000008   0.000002
     34      -0.000069   0.139662  -0.000116   0.000040  -0.278685   0.377344
     35      -0.139461  -0.000012  -0.032509   0.237615  -0.000001  -0.000003
     36       0.033813   0.000041   0.173679   0.115739   0.000007  -0.000011
     37       0.000054  -0.062460   0.000058  -0.000001   0.413773   0.521912
     38      -0.179138   0.000026   0.059360  -0.235840   0.000002  -0.000003
     39       0.219338  -0.000011  -0.077622  -0.065461  -0.000015   0.000003
     40      -0.000054   0.158791  -0.000141   0.000052  -0.266571   0.365664
     41       0.113315  -0.000019  -0.056851   0.341702  -0.000007   0.000002
     42      -0.004895   0.000027   0.146269   0.223211   0.000005  -0.000007
     43      -0.000036   0.027840  -0.000013   0.000013   0.334970   0.435451
     44       0.315447   0.000021   0.054592  -0.214279  -0.000007  -0.000003
                 18         19         20         21         22         23    
      0      -0.158039   0.000011  -0.000002   0.000001   0.000000   0.005117
      1      -0.000034   0.208889   0.000396   0.041912  -0.002646   0.000006
      2      -0.014113   0.000002   0.000001  -0.000001   0.000001  -0.022831
      3       0.030057  -0.000003  -0.000000  -0.000001  -0.000000  -0.000211
      4       0.000013  -0.039022   0.000543  -0.004852   0.000216  -0.000004
      5      -0.201881  -0.000004  -0.000004  -0.000000  -0.000001   0.037299
      6      -0.138107   0.000001  -0.000003  -0.000000  -0.000001   0.023624
      7       0.000014  -0.051222   0.000203  -0.007438  -0.000045  -0.000002
      8       0.130818   0.000000   0.000000  -0.000000   0.000000  -0.005175
      9       0.163932  -0.000003  -0.000001   0.000001  -0.000000   0.027680
     10      -0.000070   0.012852  -0.004828  -0.010516   0.003353   0.000016
     11      -0.498597   0.000006  -0.000004  -0.000003   0.000001  -0.017566
     12       0.106240   0.000002   0.000004   0.000001   0.000002  -0.026393
     13      -0.000010  -0.230438  -0.002289  -0.074893   0.006498  -0.000001
     14       0.060206   0.000003   0.000002   0.000002   0.000001  -0.020288
     15       0.171728  -0.000003   0.000004  -0.000001   0.000002  -0.028633
     16       0.000013   0.066483  -0.071076   0.101227   0.090981  -0.000006
     17      -0.133727  -0.000004  -0.000003  -0.000001  -0.000017  -0.355275
     18       0.204932  -0.000006   0.000001  -0.000000  -0.000002   0.019056
     19       0.000003   0.013276  -0.075827  -0.001121  -0.094736   0.000005
     20      -0.139319   0.000001  -0.000001  -0.000000   0.000004  -0.038139
     21      -0.174551  -0.000004  -0.000002  -0.000002   0.000007   0.366638
     22       0.000012   0.117784   0.004274  -0.113387   0.017419   0.000007
     23      -0.098203  -0.000000   0.000000  -0.000001   0.000005   0.204253
     24      -0.022399   0.000000  -0.000000  -0.000000  -0.000000  -0.021399
     25      -0.000012   0.009428   0.078126   0.020936   0.078007  -0.000018
     26       0.236287   0.000002   0.000002   0.000000  -0.000007   0.044087
     27      -0.029605   0.000002  -0.000000   0.000001  -0.000007  -0.327504
     28       0.000008   0.062243   0.067975   0.085290  -0.099687   0.000018
     29       0.206537   0.000000   0.000003   0.000000   0.000012   0.161616
     30       0.019543  -0.000004  -0.000006   0.000010   0.000016  -0.089979
     31      -0.000017   0.021961   0.474005  -0.550470  -0.497917   0.000016
     32      -0.138206  -0.000004  -0.000008   0.000005  -0.000013  -0.374796
     33       0.363449   0.000004  -0.000004   0.000003  -0.000004  -0.025265
     34      -0.000073  -0.562177   0.511740  -0.006783   0.503318  -0.000029
     35       0.123762   0.000011  -0.000003   0.000006   0.000006  -0.158690
     36      -0.175378   0.000003  -0.000002  -0.000004   0.000004   0.393798
     37      -0.000018  -0.517387  -0.024472   0.647241  -0.099027  -0.000017
     38      -0.087646   0.000001   0.000001  -0.000011   0.000012   0.204245
     39       0.276670  -0.000002   0.000002  -0.000001   0.000003  -0.127828
     40      -0.000010  -0.536973  -0.538686  -0.125840  -0.403593   0.000093
     41       0.239747   0.000005   0.000004   0.000001  -0.000005   0.067298
     42      -0.104633   0.000006   0.000004   0.000009  -0.000005  -0.393714
     43       0.000015   0.062977  -0.448427  -0.473083   0.540755  -0.000107
     44       0.086750   0.000006   0.000009   0.000011   0.000022   0.086317
                 24         25         26         27         28         29    
      0       0.000001  -0.031564   0.056236  -0.016312   0.020728  -0.000052
      1      -0.018070   0.000004  -0.000006   0.000001   0.000003  -0.000000
      2       0.000004  -0.118357   0.190299  -0.052762   0.020957   0.001707
      3       0.000001  -0.023902   0.045971  -0.015284   0.071630  -0.002164
      4       0.001889  -0.000006   0.000008  -0.000002   0.000001  -0.000000
      5      -0.000003   0.116119  -0.178119   0.048539  -0.035012   0.000953
      6      -0.000001   0.057050  -0.078415   0.046101  -0.004563   0.000269
      7       0.002735  -0.000003   0.000003  -0.000001   0.000000   0.000000
      8       0.000000  -0.017606   0.023733  -0.014726   0.020144  -0.000872
      9      -0.000005   0.134111  -0.240727   0.070195  -0.286502   0.009123
     10       0.002841   0.000052  -0.000071   0.000022  -0.000050   0.000002
     11       0.000008  -0.205050   0.407938  -0.122694   0.694078  -0.021440
     12       0.000001  -0.075105   0.074066  -0.081115  -0.188834  -0.000936
     13       0.025136   0.000001  -0.000001   0.000001   0.000000   0.000000
     14       0.000003  -0.064212   0.090077   0.014544  -0.099709   0.010499
     15      -0.000001  -0.070931  -0.067505  -0.063633   0.015399   0.003216
     16      -0.050920   0.000003   0.000004  -0.000002  -0.000001  -0.000000
     17      -0.000013   0.129143  -0.000034  -0.092704  -0.008911   0.003354
     18      -0.000001   0.149169   0.042197   0.099190   0.056007   0.015316
     19       0.079450  -0.000003  -0.000002  -0.000001  -0.000000  -0.000000
     20       0.000002  -0.171764  -0.075680  -0.022165  -0.031202   0.032851
     21       0.000006   0.055005   0.053366  -0.058520  -0.017578   0.030224
     22      -0.087582  -0.000004   0.000002   0.000002  -0.000001   0.000001
     23       0.000007   0.008639   0.080739   0.069697  -0.015628  -0.051945
     24      -0.000003  -0.057656  -0.074169  -0.009036   0.002908  -0.044755
     25       0.092112   0.000014  -0.000003  -0.000004   0.000001  -0.000003
     26      -0.000007   0.257211  -0.013935  -0.056156   0.069722   0.000812
     27      -0.000002   0.033459   0.067643   0.102238  -0.010722  -0.000349
     28      -0.067078  -0.000008  -0.000001   0.000004  -0.000001   0.000000
     29       0.000006  -0.107895  -0.082449   0.023709   0.003655   0.005024
     30      -0.000019  -0.306468  -0.487636  -0.387216   0.478708  -0.146387
     31       0.313791  -0.000019  -0.000031  -0.000007   0.000009  -0.000003
     32      -0.000016   0.131321   0.007492  -0.098806  -0.021875   0.005253
     33       0.000016  -0.024860  -0.048535   0.247699   0.045968   0.222169
     34      -0.449509   0.000012   0.000012   0.000014   0.000002   0.000017
     35       0.000023  -0.490950  -0.242919   0.215337  -0.056593   0.389087
     36       0.000002   0.109705  -0.036737  -0.275759   0.004778   0.335378
     37       0.490652   0.000018  -0.000014  -0.000014   0.000001  -0.000014
     38       0.000004  -0.054606   0.250597   0.450419  -0.048174  -0.585465
     39      -0.000017  -0.322953  -0.485533  -0.175269  -0.013914  -0.521632
     40      -0.514432  -0.000076   0.000013   0.000028  -0.000001   0.000010
     41      -0.000005   0.271682  -0.014538  -0.061845   0.074477   0.002559
     42       0.000004  -0.143977   0.004903   0.355190   0.161288   0.099679
     43       0.404426   0.000053  -0.000011  -0.000014   0.000003  -0.000002
     44       0.000019  -0.414849  -0.210410   0.461187   0.322318   0.181289
                 30         31         32         33         34         35    
      0       0.002489  -0.005999  -0.039236   0.060709  -0.029238  -0.000105
      1       0.000000  -0.000001   0.000001  -0.000003   0.000002  -0.000000
      2       0.000882   0.025797  -0.155761   0.223002  -0.027036  -0.046816
      3       0.023191  -0.027535   0.043424  -0.049735   0.000582   0.000826
[...]
     23       0.308045  -0.085246   0.050162  -0.030835   0.003267   0.029279
     24       0.168396   0.261173   0.025741   0.001589   0.000140  -0.003274
     25      -0.000000   0.000003   0.000000   0.000000  -0.000000   0.000000
     26      -0.142001   0.087297  -0.028550   0.038298  -0.058946   0.035822
     27      -0.008874  -0.214538  -0.023152   0.007221  -0.016088   0.026607
     28       0.000002  -0.000005  -0.000003  -0.000000   0.000000  -0.000000
     29       0.203841  -0.233616   0.045928  -0.005123   0.011124  -0.016943
     30       0.296636   0.386113   0.058117  -0.000051   0.000326   0.000314
     31       0.000007   0.000006  -0.000002  -0.000000  -0.000001  -0.000001
     32       0.104535  -0.094487   0.060497  -0.084257  -0.151047  -0.191421
     33       0.222676  -0.097368   0.053852  -0.416521  -0.581210  -0.421346
     34       0.000003  -0.000002  -0.000001  -0.000003  -0.000003  -0.000003
     35       0.033731  -0.322207   0.052118   0.240413   0.338209   0.249418
     36       0.256344  -0.148738   0.034036   0.635062   0.001020  -0.561137
     37      -0.000003   0.000001  -0.000004   0.000007   0.000000  -0.000006
     38      -0.474269  -0.048556  -0.044712   0.363108  -0.004803  -0.321487
     39      -0.197756  -0.307384  -0.061279  -0.003100   0.001989   0.002971
     40       0.000001  -0.000003   0.000002  -0.000002   0.000003  -0.000002
     41      -0.162221   0.101869  -0.027983  -0.455218   0.678640  -0.399383
     42      -0.228000   0.142182  -0.060776  -0.095373   0.206690  -0.322189
     43      -0.000004   0.000009  -0.000002  -0.000000   0.000001  -0.000001
     44      -0.163205   0.414691   0.007636   0.054915  -0.119379   0.184882
                 42         43         44    
      0      -0.000950  -0.000236   0.004124
      1       0.000000   0.000000   0.000001
      2       0.000783   0.000855   0.000811
      3       0.000271   0.000354   0.054335
      4       0.000000  -0.000000  -0.000002
      5       0.000096  -0.000137   0.027966
      6       0.000247  -0.000141  -0.000204
      7       0.000000  -0.000000  -0.000000
      8      -0.000442  -0.000110  -0.000436
      9      -0.000568   0.000854  -0.895288
     10      -0.000001  -0.000000   0.000026
     11      -0.000043  -0.001111  -0.441252
     12      -0.000156   0.003155  -0.000954
     13      -0.000000   0.000000  -0.000000
     14      -0.002983  -0.000788  -0.000414
     15       0.000392   0.001455  -0.000121
     16       0.000000   0.000001   0.000000
     17       0.012768   0.083919  -0.000116
     18       0.003903  -0.022285   0.000034
     19       0.000000  -0.000000  -0.000000
     20      -0.003718   0.009738  -0.000024
     21       0.014739  -0.007390   0.000001
     22       0.000000  -0.000000  -0.000000
     23       0.006603  -0.005369  -0.000024
     24       0.002600   0.000111  -0.000095
     25       0.000000  -0.000000  -0.000000
     26       0.036816  -0.007194   0.000085
     27      -0.068740   0.007468   0.000180
     28      -0.000000   0.000000  -0.000000
     29       0.037121  -0.004624  -0.000001
     30      -0.001869  -0.011346  -0.000790
     31      -0.000002  -0.000008   0.000000
     32      -0.152079  -0.951110  -0.000208
     33      -0.048212   0.220768  -0.000306
     34      -0.000000   0.000002  -0.000000
     35       0.029861  -0.125158   0.000180
     36      -0.148191   0.078935  -0.000022
     37      -0.000002   0.000001  -0.000000
     38      -0.082514   0.046604   0.000029
     39      -0.003644   0.000016   0.000090
     40      -0.000002   0.000001  -0.000000
     41      -0.397350   0.076094  -0.000229
     42       0.768742  -0.081437  -0.000617
     43       0.000002  -0.000000  -0.000000
     44      -0.433693   0.046591   0.000746


-----------
IR SPECTRUM
-----------

 Mode   freq       eps      Int      T**2         TX        TY        TZ
       cm**-1   L/(mol*cm) km/mol    a.u.
----------------------------------------------------------------------------
  6:     76.32   0.000166    0.84  0.000678  (-0.000002 -0.026048 -0.000007)
  7:    164.10   0.000118    0.60  0.000225  (-0.000012 -0.015007 -0.000000)
  8:    215.43   0.000231    1.17  0.000335  ( 0.017996 -0.000008  0.003310)
  9:    387.58   0.001695    8.57  0.001365  (-0.016176 -0.000012 -0.033215)
 10:    425.73   0.000101    0.51  0.000074  (-0.000003  0.008605  0.000005)
 11:    443.88   0.001945    9.83  0.001367  (-0.000021 -0.036980  0.000008)
 12:    501.26   0.001380    6.98  0.000859  (-0.009660 -0.000001  0.027676)
 13:    613.89   0.021919  110.77  0.011142  (-0.000050 -0.105557 -0.000005)
 14:    633.90   0.009596   48.50  0.004724  (-0.041662  0.000043 -0.054668)
 15:    649.65   0.000190    0.96  0.000091  ( 0.004233 -0.000007  0.008569)
 16:    715.01   0.004055   20.49  0.001770  ( 0.000008 -0.042071 -0.000002)
 17:    728.48   0.025135  127.02  0.010767  (-0.000002  0.103766  0.000006)
 18:    780.22   0.000347    1.75  0.000139  (-0.007845 -0.000008 -0.008793)
 19:    829.66   0.001153    5.83  0.000434  (-0.000008 -0.020827  0.000005)
 20:    889.84   0.000005    0.02  0.000002  ( 0.000000 -0.001296  0.000002)
 21:    986.84   0.000637    3.22  0.000201  (-0.000002 -0.014190  0.000002)
 22:   1020.85   0.000009    0.04  0.000003  ( 0.000000  0.001618  0.000001)
 23:   1034.84   0.000226    1.14  0.000068  (-0.001610  0.000001 -0.008101)
 24:   1046.55   0.000054    0.27  0.000016  ( 0.000002  0.004019  0.000003)
 25:   1059.34   0.015040   76.01  0.004431  (-0.027865  0.000004 -0.060449)
 26:   1081.30   0.032028  161.86  0.009243  ( 0.020415 -0.000006  0.093949)
 27:   1127.83   0.002365   11.95  0.000654  (-0.016848  0.000002 -0.019250)
 28:   1199.79   0.028763  145.36  0.007481  ( 0.039965 -0.000003  0.076708)
 29:   1224.00   0.000082    0.41  0.000021  ( 0.001472  0.000000 -0.004317)
 30:   1236.81   0.000815    4.12  0.000206  (-0.003274 -0.000001  0.013966)
 31:   1374.41   0.000494    2.50  0.000112  (-0.006829  0.000001  0.008091)
 32:   1384.72   0.006325   31.96  0.001425  (-0.029430  0.000000 -0.023650)
 33:   1388.09   0.017936   90.64  0.004032  ( 0.034066 -0.000000  0.053590)
 34:   1508.73   0.003339   16.87  0.000691  (-0.004129  0.000000 -0.025954)
 35:   1550.83   0.000722    3.65  0.000145  ( 0.009793  0.000001 -0.007034)
 36:   1636.43   0.002498   12.63  0.000476  ( 0.021472  0.000000 -0.003922)
 37:   1661.87   0.003826   19.34  0.000719  (-0.021848  0.000000 -0.015530)
 38:   1725.43   0.052391  264.76  0.009476  (-0.091458 -0.000002  0.033332)
 39:   3194.53   0.000124    0.63  0.000012  (-0.002722 -0.000000 -0.002173)
 40:   3207.69   0.003152   15.93  0.000307  ( 0.009039 -0.000000 -0.014997)
 41:   3219.18   0.004119   20.81  0.000399  ( 0.018333  0.000000  0.007948)
 42:   3233.96   0.001661    8.40  0.000160  ( 0.003117 -0.000000  0.012272)
 43:   3246.28   0.000620    3.13  0.000060  (-0.007192  0.000000  0.002807)
 44:   3623.70   0.009668   48.86  0.000833  (-0.019502  0.000001 -0.021265)

* The epsilon (eps) is given for a Dirac delta lineshape.
** The dipole moment derivative (T) already includes vibrational overlap.

The first frequency considered to be a vibration is 6
The total number of vibrations considered is 39


--------------------------
THERMOCHEMISTRY AT 298.15K
--------------------------

Temperature         ...   298.15 K
Pressure            ...     1.00 atm
Total Mass          ...   122.12 AMU
Quasi RRHO          ...     True
Cut-Off Frequency   ...     1.00 cm^-1

Throughout the following assumptions are being made:
  (1) The electronic state is orbitally nondegenerate
  (2) There are no thermally accessible electronically excited states
  (3) Hindered rotations indicated by low frequency modes are not
      treated as such but are treated as vibrations and this may
      cause some error
  (4) All equations used are the standard statistical mechanics
      equations for an ideal gas
  (5) All vibrations are strictly harmonic

freq.      76.32  E(vib)   ...       0.49 
freq.     164.10  E(vib)   ...       0.39 
freq.     215.43  E(vib)   ...       0.34 
freq.     387.58  E(vib)   ...       0.20 
freq.     425.73  E(vib)   ...       0.18 
freq.     443.88  E(vib)   ...       0.17 
freq.     501.26  E(vib)   ...       0.14 
freq.     613.89  E(vib)   ...       0.10 
freq.     633.90  E(vib)   ...       0.09 
freq.     649.65  E(vib)   ...       0.08 
freq.     715.01  E(vib)   ...       0.07 
freq.     728.48  E(vib)   ...       0.06 
freq.     780.22  E(vib)   ...       0.05 
freq.     829.66  E(vib)   ...       0.04 
freq.     889.84  E(vib)   ...       0.04 
freq.     986.84  E(vib)   ...       0.02 
freq.    1020.85  E(vib)   ...       0.02 
freq.    1034.84  E(vib)   ...       0.02 
freq.    1046.55  E(vib)   ...       0.02 
freq.    1059.34  E(vib)   ...       0.02 
freq.    1081.30  E(vib)   ...       0.02 
freq.    1127.83  E(vib)   ...       0.01 
freq.    1199.79  E(vib)   ...       0.01 
freq.    1224.00  E(vib)   ...       0.01 
freq.    1236.81  E(vib)   ...       0.01 
freq.    1374.41  E(vib)   ...       0.01 
freq.    1384.72  E(vib)   ...       0.00 
freq.    1388.09  E(vib)   ...       0.00 
freq.    1508.73  E(vib)   ...       0.00 
freq.    1550.83  E(vib)   ...       0.00 
freq.    1636.43  E(vib)   ...       0.00 
freq.    1661.87  E(vib)   ...       0.00 
freq.    1725.43  E(vib)   ...       0.00 
freq.    3194.53  E(vib)   ...       0.00 
freq.    3207.69  E(vib)   ...       0.00 
freq.    3219.18  E(vib)   ...       0.00 
freq.    3233.96  E(vib)   ...       0.00 
freq.    3246.28  E(vib)   ...       0.00 
freq.    3623.70  E(vib)   ...       0.00 

------------
INNER ENERGY
------------

The inner energy is: U= E(el) + E(ZPE) + E(vib) + E(rot) + E(trans)
    E(el)   - is the total energy from the electronic structure calculation
              = E(kin-el) + E(nuc-el) + E(el-el) + E(nuc-nuc)
    E(ZPE)  - the the zero temperature vibrational energy from the frequency calculation
    E(vib)  - the the finite temperature correction to E(ZPE) due to population
              of excited vibrational states
    E(rot)  - is the rotational thermal energy
    E(trans)- is the translational thermal energy

Summary of contributions to the inner energy U:
Electronic energy                ...   -420.46855359 Eh
Zero point energy                ...      0.11625249 Eh      72.95 kcal/mol
Thermal vibrational correction   ...      0.00418529 Eh       2.63 kcal/mol
Thermal rotational correction    ...      0.00141627 Eh       0.89 kcal/mol
Thermal translational correction ...      0.00141627 Eh       0.89 kcal/mol
-----------------------------------------------------------------------
Total thermal energy                   -420.34528326 Eh


Summary of corrections to the electronic energy:
(perhaps to be used in another calculation)
Total thermal correction                  0.00701784 Eh       4.40 kcal/mol
Non-thermal (ZPE) correction              0.11625249 Eh      72.95 kcal/mol
-----------------------------------------------------------------------
Total correction                          0.12327032 Eh      77.35 kcal/mol


--------
ENTHALPY
--------

The enthalpy is H = U + kB*T
                kB is Boltzmann's constant
Total thermal energy              ...   -420.34528326 Eh 
Thermal Enthalpy correction       ...      0.00094421 Eh       0.59 kcal/mol
-----------------------------------------------------------------------
Total Enthalpy                    ...   -420.34433906 Eh


Note: Only C1 symmetry has been detected, increase convergence thresholds 
      if your molecule has a higher symmetry. Symmetry factor of 1.0 is   
      used for the rotational entropy correction. 
 

Note: Rotational entropy computed according to Herzberg 
Infrared and Raman Spectra, Chapter V,1, Van Nostrand Reinhold, 1945 
Point Group:  C1, Symmetry Number:   1  
Rotational constants in cm-1:     0.127111     0.040541     0.030738 

Vibrational entropy computed according to the QRRHO of S. Grimme
Chem.Eur.J. 2012 18 9955 using a reference frequency of 100.0 cm-1


-------
ENTROPY
-------

The entropy contributions are T*S = T*(S(el)+S(vib)+S(rot)+S(trans))
     S(el)   - electronic entropy
     S(vib)  - vibrational entropy
     S(rot)  - rotational entropy
     S(trans)- translational entropy
The entropies will be listed as multiplied by the temperature to get
units of energy

Electronic entropy                ...      0.00000000 Eh      0.00 kcal/mol
Vibrational entropy               ...      0.00676970 Eh      4.25 kcal/mol
Rotational entropy                ...      0.01364179 Eh      8.56 kcal/mol
Translational entropy             ...      0.01915430 Eh     12.02 kcal/mol
-----------------------------------------------------------------------
Final entropy term                ...      0.03956579 Eh     24.83 kcal/mol

In case the symmetry of your molecule has not been determined correctly
or in case you have a reason to use a different symmetry number we print 
out the resulting rotational entropy values for sn=1,12:

 non-linear molecules -----------------------------------
|  sn= 1 | S(rot)=       0.01364179 Eh      8.56 kcal/mol|
|  sn= 2 | S(rot)=       0.01298734 Eh      8.15 kcal/mol|
|  sn= 3 | S(rot)=       0.01260451 Eh      7.91 kcal/mol|
|  sn= 4 | S(rot)=       0.01233288 Eh      7.74 kcal/mol|
|  sn= 5 | S(rot)=       0.01212219 Eh      7.61 kcal/mol|
|  sn= 6 | S(rot)=       0.01195005 Eh      7.50 kcal/mol|
|  sn= 7 | S(rot)=       0.01180450 Eh      7.41 kcal/mol|
|  sn= 8 | S(rot)=       0.01167843 Eh      7.33 kcal/mol|
|  sn= 9 | S(rot)=       0.01156722 Eh      7.26 kcal/mol|
|  sn=10 | S(rot)=       0.01146774 Eh      7.20 kcal/mol|
|  sn=11 | S(rot)=       0.01137775 Eh      7.14 kcal/mol|
|  sn=12 | S(rot)=       0.01129559 Eh      7.09 kcal/mol|
 linear molecules ---------------------------------------
|  Dinfh | S(rot)=       0.00861370 Eh      5.41 kcal/mol|
|  Cinfv | S(rot)=       0.00926816 Eh      5.82 kcal/mol|
 --------------------------------------------------------


-------------------
GIBBS FREE ENERGY
-------------------

The Gibbs free energy is G = H - T*S

Total enthalpy                    ...   -420.34433906 Eh 
Total entropy correction          ...     -0.03956579 Eh    -24.83 kcal/mol
-----------------------------------------------------------------------
Final Gibbs free energy         ...   -420.38390485 Eh

For completeness - the Gibbs free energy minus the electronic energy
G-E(el)                           ...      0.08464874 Eh     53.12 kcal/mol


Maximum memory used throughout the entire PROP-calculation: 29.2 MB

--------------------------------
SUGGESTED CITATIONS FOR THIS RUN
--------------------------------

Below you find a list of papers that are relevant to this ORCA run
We neither can nor want to force you to cite these papers, but we appreciate if you do
You receive ORCA, which is the product of decades of hard work by many enthusiastic individuals, for free
The only thing we kindly ask in return is that you cite our papers,
We deeply appreciate it, if you show your appreciation for ORCA by not just citing the generic ORCA reference.

Please note that relegating all ORCA citations to the supporting information does *not* help us.
SI sections are not indexed - citations you put there will not count into any citation statistics
But we need these citations in order to attract the funding resources that allow us to do what we are doing

Therefore, if you are a happy ORCA user, please consider citing a few of the papers listed below in the main body of your paper

In addition to the list printed below, the program has created the file freq.bibtex that contains the list in bibtex format
You can import this file easily into all common literature databanks and citation aid programs


List of essential papers. We consider these as the minimum necessary citations

  1. Neese, F.
     Software update: the ORCA program system, version 6.0
     WIRES Comput. Molec. Sci. 2025 15(1), e70019
     doi.org/10.1002/wcms.7019

List of papers to cite with high priority. The work reported in these papers was absolutely
necessary for this run to complete.
Our perspective: the developers of density functionals and basis sets usually get cited in chemistry papers
Good! But without the algorithms to do something with them, the functionals or basis sets would not do anything.
Hence, in our opinion, the algorithm design and method developments papers are equally worthy of getting cited

  1. Neese, F.
     An improvement of the resolution of the identity approximation for the formation of the Coulomb matrix
     J. Comp. Chem. 2003 24(14), 1740-1747
     doi.org/10.1002/jcc.10318
  2. Neese, F.; Wennmohs, F.; Hansen, A.; Becker, U.
     Efficient, approximate and parallel Hartree-Fock and hybrid DFT calculations. A 'chain-of-spheres' algorithm for the Hartree-Fock exchange
     Chem. Phys. 2009 356(1-3), 98-109
     doi.org/10.1016/j.chemphys.2008.10.036
  3. Bykov, D.; Petrenko, T.; Izsak, R.; Kossmann, S.; Becker, U.; Valeev, E.; Neese, F.
     Efficient implementation of the analytic second derivatives of Hartree-Fock and hybrid DFT energies: a detailed analysis of different approximations
     Molec. Phys. 2015 113 , 1961-1977
     doi.org/10.1080/00268976.2015.1025114
  4. Helmich-Paris, B.; de Souza, B.; Neese, F.; Izsák, R.
     An improved chain of spheres for exchange algorithm
     J. Chem. Phys. 2021 155(10), 104109
     doi.org/10.1063/5.0058766
  5. Neese, F.
     The SHARK Integral Generation and Digestion System
     J. Comp. Chem. 2022 44(3), 381
     doi.org/10.1002/jcc.26942

List of suggested additional citations. These are papers that are important in the 'surrounding' of 
of this run, or papers that preceded the highly important papers. If you like your results we are grateful for a citation.

  1. Izsak, R.; Neese, F.
     An overlap fitted chain of spheres exchange method
     J. Chem. Phys. 2011 135 , 144105
     doi.org/10.1063/1.3646921
  2. Izsak, R.; Hansen, A.; Neese, F.
     The resolution of identity and chain of spheres approximations for the LPNO-CCSD singles Fock term
     Molec. Phys. 2012 110 , 2413-2417
     doi.org/10.1080/00268976.2012.687466
  3. Neese, F.
     The ORCA program system
     WIRES Comput. Molec. Sci. 2012 2(1), 73-78
     doi.org/10.1002/wcms.81
  4. Izsak, R.; Neese, F.; Klopper, W.
     Robust fitting techniques in the chain of spheres approximation to the Fock exchange: The role of the complementary space
     J. Chem. Phys. 2013 139 , 
     doi.org/10.1063/1.4819264
  5. Neese, F.
     Software update: the ORCA program system, version 4.0
     WIRES Comput. Molec. Sci. 2018 8(1), 1-6
     doi.org/10.1002/wcms.1327
  6. Neese, F.; Wennmohs, F.; Becker, U.; Riplinger, C.
     The ORCA quantum chemistry program package
     J. Chem. Phys. 2020 152(22), 224108
     doi.org/10.1063/5.0004608
  7. Neese, F.
     Software update: The ORCA program system—Version 5.0
     WIRES Comput. Molec. Sci. 2022 12(1), e1606
     doi.org/10.1002/wcms.1606

List of optional additional citations

  1. Neese, F.
     Approximate second-order SCF convergence for spin unrestricted wavefunctions
     Chem. Phys. Lett. 2000 325(1-3), 93-98
     doi.org/10.1016/s0009-2614(00)00662-x

Timings for individual modules:

Sum of individual times          ...       22.272 sec (=   0.371 min)
Startup calculation              ...        1.349 sec (=   0.022 min)   6.1 %
SCF iterations                   ...        2.189 sec (=   0.036 min)   9.8 %
Property integrals               ...        5.044 sec (=   0.084 min)  22.6 %
SCF Response                     ...        3.581 sec (=   0.060 min)  16.1 %
Property calculations            ...       10.109 sec (=   0.168 min)  45.4 %
                             ****ORCA TERMINATED NORMALLY****
TOTAL RUN TIME: 0 days 0 hours 0 minutes 22 seconds 827 msec
