[Molden Format]
[Title]
 Molden file created by orca_2mkl for BaseName=opt

[Atoms] AU
C    1   6          0.0000000511         0.0000000267         0.0345822184 
O    2   8         -0.0000002002        -0.0000000084         2.3623861796 
H    3   1          1.7644596114        -0.0000000092        -1.0747073186 
H    4   1         -1.7644594624        -0.0000000092        -1.0747069558 
[GTO]
  1 0
s   6 1.0 
     3047.5249000000         0.5363343823
      457.3695100000         0.9894506076
      103.9486900000         1.5972822308
       29.2101550000         2.0791870615
        9.2866630000         1.7741742532
        3.1639270000         0.6125798260
s   3 1.0 
        7.8682724000        -0.3995563516
        1.8812885000        -0.1841552393
        0.5442493000         0.5163903794
p   3 1.0 
        7.8682724000         1.2960827175
        1.8812885000         0.9937536282
        0.5442493000         0.4959527138
s   1 1.0 
        0.1687144000         0.1876178721
p   1 1.0 
        0.1687144000         0.1541275509

  2 0
s   6 1.0 
     5484.6717000000         0.8317352088
      825.2349500000         1.5308074829
      188.0469600000         2.4771490916
       52.9645000000         3.2562802462
       16.8975700000         2.7928936336
        5.7996353000         0.9549376963
s   3 1.0 
       15.5396160000        -0.6179336976
        3.5999336000        -0.2757210088
        1.0137618000         0.8142076427
p   3 1.0 
       15.5396160000         3.1169455889
        3.5999336000         2.4014372483
        1.0137618000         1.0543605133
s   1 1.0 
        0.2700058000         0.2669561389
p   1 1.0 
        0.2700058000         0.2774319373

  3 0
s   3 1.0 
       18.7311370000         0.2149354183
        2.8253937000         0.3645711272
        0.6401217000         0.4150514277
s   1 1.0 
        0.1612778000         0.1813806839

  4 0
s   3 1.0 
       18.7311370000         0.2149354183
        2.8253937000         0.3645711272
        0.6401217000         0.4150514277
s   1 1.0 
        0.1612778000         0.1813806839

[5D]
[7F]
[9G]
[MO]
 Sym=     1a
 Ene= -1.91712356479867E+01
 Spin= Alpha
 Occup= 2.000000
  1      -0.000199098905
  2       0.000202071598
  3      -0.000000000101
  4       0.000000000001
  5       0.000040409756
  6      -0.008378872542
  7       0.000000001863
  8       0.000000000075
  9      -0.005473251502
 10      -0.995103297392
 11      -0.028827803806
 12      -0.000000000260
 13      -0.000000000010
 14       0.002416589046
 15       0.017670534100
 16       0.000000000219
 17       0.000000000053
 18      -0.005441913074
 19       0.000343308726
 20      -0.000129168745
 21       0.000343309086
 22      -0.000129167037
 Sym=     1a
 Ene= -1.02885017799663E+01
 Spin= Alpha
 Occup= 2.000000
  1       0.995025332526
  2       0.033720937609
  3      -0.000000000561
  4      -0.000000000131
  5       0.001128623710
  6      -0.017382047686
  7       0.000000000590
  8       0.000000000143
  9       0.002424086673
 10      -0.000121727719
 11      -0.000336660826
 12      -0.000000000101
 13       0.000000000007
 14       0.000573511588
 15      -0.000179606307
 16      -0.000000000047
 17      -0.000000000039
 18       0.001772514332
 19      -0.001150755294
 20       0.004869837325
 21      -0.001150755917
 22       0.004869838653
 Sym=     1a
 Ene= -1.07023132272249E+00
 Spin= Alpha
 Occup= 2.000000
  1      -0.113538492114
  2       0.230175405660
  3      -0.000000030296
  4      -0.000000003257
  5       0.191371199309
  6       0.059918513573
  7       0.000000008683
  8       0.000000000290
  9      -0.037102458057
 10      -0.194699115468
 11       0.434982037710
 12       0.000000019624
 13       0.000000002823
 14      -0.186548457634
 15       0.400547484592
 16       0.000000003783
 17       0.000000001417
 18      -0.063960505762
 19       0.027263442680
 20      -0.007728720539
 21       0.027263455422
 22      -0.007728708244
 Sym=     1a
 Ene= -6.42139700905847E-01
 Spin= Alpha
 Occup= 2.000000
  1       0.163675417344
  2      -0.351194630525
  3       0.000000046939
  4       0.000000004524
  5       0.215332880330
  6      -0.331338160600
  7       0.000000002870
  8       0.000000001735
  9       0.071970189967
 10      -0.086700146600
 11       0.200536835145
 12       0.000000015891
 13       0.000000000296
 14       0.077794907699
 15       0.258261974042
 16       0.000000009357
 17      -0.000000000060
 18       0.032646684567
 19      -0.185586038985
 20      -0.071148878806
 21      -0.185586083923
 22      -0.071148895465
 Sym=     1a
 Ene= -5.00717644240776E-01
 Spin= Alpha
 Occup= 2.000000
  1      -0.000000020044
  2       0.000000039714
  3       0.455751698883
  4       0.000000000111
  5      -0.000000006558
  6       0.000000058164
  7       0.185253356183
  8       0.000000000087
  9      -0.000000015764
 10      -0.000000000879
 11       0.000000000411
 12       0.273225400607
 13       0.000000000154
 14       0.000000032112
 15       0.000000020362
 16       0.134048636596
 17       0.000000000090
 18       0.000000010418
 19       0.198476923424
 20       0.121396891675
 21      -0.198476904084
 22      -0.121396872622
 Sym=     1a
 Ene= -4.40555326912702E-01
 Spin= Alpha
 Occup= 2.000000
  1      -0.028917141570
  2       0.104621723588
  3      -0.000000006855
  4       0.000000003759
  5       0.375874604637
  6       0.012523369938
  7       0.000000008619
  8       0.000000002576
  9       0.062577489300
 10       0.090240813415
 11      -0.190212497734
 12       0.000000089764
 13       0.000000017054
 14      -0.515720659875
 15      -0.373603352267
 16       0.000000046131
 17       0.000000009336
 18      -0.253082450735
 19      -0.079867536769
 20      -0.080978202801
 21      -0.079867524213
 22      -0.080978188095
 Sym=     1a
 Ene= -3.96067554876888E-01
 Spin= Alpha
 Occup= 2.000000
  1       0.000000001937
  2      -0.000000004648
  3       0.000000000063
  4      -0.371537299764
  5       0.000000004375
  6      -0.000000005712
  7       0.000000000122
  8      -0.222582580543
  9      -0.000000000880
 10       0.000000000758
 11      -0.000000000905
 12       0.000000000184
 13      -0.505411353050
 14      -0.000000019290
 15      -0.000000004207
 16       0.000000000103
 17      -0.314623176978
 18      -0.000000011136
 19      -0.000000000834
 20      -0.000000002972
 21      -0.000000000898
 22      -0.000000002954
 Sym=     1a
 Ene= -2.67530848415203E-01
 Spin= Alpha
 Occup= 2.000000
  1       0.000000003806
  2      -0.000000004053
  3       0.149646422041
  4      -0.000000000065
  5       0.000000029661
  6      -0.000000000339
  7      -0.063392360696
  8      -0.000000000016
  9       0.000000025536
 10      -0.000000000637
 11       0.000000007465
 12      -0.598375505823
 13      -0.000000000088
 14      -0.000000110164
 15      -0.000000015640
 16      -0.426463715114
 17      -0.000000000056
 18      -0.000000067598
 19       0.187370502932
 20       0.291766604863
 21      -0.187370517197
 22      -0.291766582647
 Sym=     1a
 Ene= -5.31626758744584E-02
 Spin= Alpha
 Occup= 0.000000
  1      -0.000000004540
  2       0.000000007174
  3       0.000000000029
  4       0.502221580087
  5      -0.000000001026
  6       0.000000036702
  7      -0.000000000308
  8       0.561423058489
  9      -0.000000004488
 10       0.000000000628
 11      -0.000000002367
 12       0.000000000006
 13      -0.453173908024
 14      -0.000000003269
 15      -0.000000000381
 16       0.000000000086
 17      -0.464044194185
 18      -0.000000004229
 19      -0.000000006951
 20      -0.000000016841
 21      -0.000000006886
 22      -0.000000017364
 Sym=     1a
 Ene= 1.01568784305388E-01
 Spin= Alpha
 Occup= 0.000000
  1      -0.131622527287
  2       0.217845405524
  3       0.000000164500
  4      -0.000000014406
  5      -0.234733880755
  6       1.885962462483
  7       0.000000209593
  8      -0.000000035868
  9      -0.591909276507
 10       0.007323523829
 11      -0.021117613821
 12      -0.000000097669
 13       0.000000007292
 14       0.092360874445
 15      -0.028230797096
 16      -0.000000123594
 17       0.000000013265
 18       0.104685638850
 19      -0.096198560656
 20      -1.358351852012
 21      -0.096198520772
 22      -1.358351316142
 Sym=     1a
 Ene= 1.76423170704040E-01
 Spin= Alpha
 Occup= 0.000000
  1       0.000000010291
  2       0.000000033896
  3      -0.541492261857
  4      -0.000000000142
  5      -0.000000187426
  6      -0.000000094652
  7      -1.331068618673
  8       0.000000000100
  9      -0.000001357476
 10      -0.000000067157
 11       0.000000122784
 12       0.176274964077
 13       0.000000000082
 14      -0.000000147135
 15       0.000001088381
 16       0.358521456466
 17      -0.000000000005
 18      -0.000000463411
 19       0.026958006605
 20       1.570208642922
 21      -0.026957958533
 22      -1.570210029880
 Sym=     1a
 Ene= 2.14474549312788E-01
 Spin= Alpha
 Occup= 0.000000
  1       0.056871178350
  2      -0.002697464191
  3       0.000000419981
  4       0.000000002225
  5      -0.148633676062
  6      -1.394065289203
  7       0.000001167019
  8       0.000000022789
  9      -1.889147075294
 10      -0.097805205158
 11       0.149948899830
 12      -0.000000080047
 13       0.000000004043
 14      -0.235412898048
 15       1.851151033412
 16      -0.000000147793
 17       0.000000014359
 18      -0.841557654896
 19       0.013647260414
 20      -0.239692517906
 21       0.013647196351
 22      -0.239689823306
 Sym=     1a
 Ene= 5.10064849716812E-01
 Spin= Alpha
 Occup= 0.000000
  1      -0.000000001468
  2       0.000000016273
  3      -0.000000000314
  4       1.044922738620
  5       0.000000007057
  6      -0.000000004129
  7       0.000000000502
  8      -1.175023358694
  9      -0.000000020091
 10      -0.000000000350
 11       0.000000001837
 12       0.000000000020
 13       0.048554013548
 14       0.000000001223
 15       0.000000003664
 16      -0.000000000098
 17       0.135512888380
 18      -0.000000000766
 19      -0.000000000921
 20      -0.000000011416
 21      -0.000000001073
 22      -0.000000010932
 Sym=     1a
 Ene= 6.24390052744034E-01
 Spin= Alpha
 Occup= 0.000000
  1      -0.000000077590
  2      -0.000000144099
  3       0.765375197111
  4       0.000000000144
  5       0.000000898297
  6       0.000001788576
  7      -2.273412520522
  8      -0.000000000209
  9      -0.000000769006
 10       0.000000064542
 11      -0.000000273557
 12       0.372342537871
 13       0.000000000057
 14       0.000000292538
 15      -0.000000300406
 16       0.168636156534
 17      -0.000000000028
 18       0.000000573922
 19       0.316379822698
 20       0.951394480877
 21      -0.316380657973
 22      -0.951395276557
 Sym=     1a
 Ene= 6.33843664847775E-01
 Spin= Alpha
 Occup= 0.000000
  1      -0.069616589949
  2      -0.124364092211
  3      -0.000000694553
  4      -0.000000012988
  5       0.980825826224
  6       1.260097260537
  7       0.000001775354
  8      -0.000000012791
  9      -1.168116186275
 10       0.051741801387
 11      -0.248028623393
 12      -0.000000436469
 13       0.000000003016
 14       0.325957650283
 15       0.145805763334
 16      -0.000000071125
 17      -0.000000004960
 18       0.395338498297
 19      -0.424886158325
 20      -0.307212895104
 21      -0.424885389002
 22      -0.307211743182
 Sym=     1a
 Ene= 7.11025373907415E-01
 Spin= Alpha
 Occup= 0.000000
  1       0.000096242151
  2      -1.301029164864
  3      -0.000000043015
  4       0.000000007530
  5      -0.610184775339
  6       1.677822381578
  7      -0.000000197186
  8      -0.000000021964
  9      -0.046998272259
 10      -0.017789622260
 11      -0.026684594423
 12      -0.000000014129
 13       0.000000017399
 14      -0.288527296873
 15      -0.012326649684
 16       0.000000131419
 17      -0.000000000463
 18      -0.226515069811
 19      -0.563606963713
 20      -0.103787586251
 21      -0.563606951706
 22      -0.103787926136
 Sym=     1a
 Ene= 8.60309985417880E-01
 Spin= Alpha
 Occup= 0.000000
  1      -0.000000134905
  2       0.000002928442
  3       0.788661459223
  4       0.000000000118
  5      -0.000001163216
  6      -0.000007035762
  7      -1.330578359900
  8      -0.000000000029
  9       0.000001300907
 10      -0.000000063266
 11       0.000000300408
 12      -0.315081855311
 13       0.000000000452
 14       0.000000901925
 15       0.000000836003
 16       0.438534033585
 17      -0.000000000505
 18      -0.000001717049
 19      -0.798843396124
 20       1.453895379656
 21       0.798840907685
 22      -1.453889253834
 Sym=     1a
 Ene= 8.81992281242740E-01
 Spin= Alpha
 Occup= 0.000000
  1      -0.063609398858
  2       1.235709083202
  3      -0.000001908367
  4      -0.000000011280
  5      -0.450454362658
  6      -2.928249175156
  7       0.000003358165
  8       0.000000028391
  9       0.491808839019
 10      -0.020656355140
 11       0.095926252722
 12       0.000000809073
 13      -0.000000003441
 14       0.442566298558
 15       0.369049634893
 16      -0.000001100223
 17       0.000000003844
 18      -0.739750485129
 19      -0.558910953559
 20       1.287371997551
 21      -0.558914649752
 22       1.287378990981
 Sym=     1a
 Ene= 9.55506362507980E-01
 Spin= Alpha
 Occup= 0.000000
  1      -0.022846292314
  2      -0.960990575090
  3       0.000000103993
  4       0.000000004526
  5       0.132134075999
  6       1.014017086437
  7      -0.000000136904
  8       0.000000001409
  9      -0.343349909574
 10      -0.048548971376
 11       0.362248053494
 12      -0.000000012121
 13       0.000000011792
 14       0.771106250686
 15      -0.186743175153
 16       0.000000027076
 17      -0.000000012326
 18      -1.122364231101
 19       0.261185770543
 20      -0.585458975924
 21       0.261185875525
 22      -0.585459282146
 Sym=     1a
 Ene= 9.58385148213050E-01
 Spin= Alpha
 Occup= 0.000000
  1       0.000000001862
  2       0.000000039947
  3      -0.000000000356
  4      -0.043020641938
  5      -0.000000002620
  6      -0.000000060926
  7       0.000000000411
  8       0.457863134790
  9       0.000000031986
 10       0.000000000979
 11      -0.000000004235
 12      -0.000000000065
 13       0.952418274936
 14      -0.000000005550
 15      -0.000000002872
 16       0.000000000106
 17      -1.240020138818
 18       0.000000012654
 19       0.000000007046
 20       0.000000024145
 21       0.000000006170
 22       0.000000025451
 Sym=     1a
 Ene= 1.10685603797516E+00
 Spin= Alpha
 Occup= 0.000000
  1       0.000000016391
  2      -0.000000143730
  3      -0.066407964585
  4      -0.000000000023
  5       0.000000067646
  6       0.000000237977
  7       1.549579931892
  8       0.000000000131
  9      -0.000000225134
 10      -0.000000008124
 11       0.000000088157
 12       0.834349663400
 13       0.000000000202
 14      -0.000000070735
 15       0.000000059668
 16      -1.487953469885
 17      -0.000000000274
 18       0.000000025248
 19      -0.460275319010
 20      -0.420717872573
 21       0.460275330075
 22       0.420717635545
 Sym=     1a
 Ene= 1.59733639704438E+00
 Spin= Alpha
 Occup= 0.000000
  1      -0.017545534465
  2      -0.163702048269
  3       0.000000019437
  4       0.000000005638
  5      -0.290142954436
  6      -2.188158994204
  7       0.000000604700
  8       0.000000023378
  9      -1.269487835064
 10       0.042472262051
 11      -1.812348523371
 12       0.000000036720
 13      -0.000000002821
 14       0.290845690186
 15       3.763283014509
 16      -0.000000049804
 17       0.000000019840
 18      -1.579822243631
 19       0.162942672345
 20      -0.032747033728
 21       0.162942911396
 22      -0.032746580517
