
                                 *****************
                                 * O   R   C   A *
                                 *****************

                                            #,                                       
                                            ###                                      
                                            ####                                     
                                            #####                                    
                                            ######                                   
                                           ########,                                 
                                     ,,################,,,,,                         
                               ,,#################################,,                 
                          ,,##########################################,,             
                       ,#########################################, ''#####,          
                    ,#############################################,,   '####,        
                  ,##################################################,,,,####,       
                ,###########''''           ''''###############################       
              ,#####''   ,,,,##########,,,,          '''####'''          '####       
            ,##' ,,,,###########################,,,                        '##       
           ' ,,###''''                  '''############,,,                           
         ,,##''                                '''############,,,,        ,,,,,,###''
      ,#''                                            '''#######################'''  
     '                                                          ''''####''''         
             ,#######,   #######,   ,#######,      ##                                
            ,#'     '#,  ##    ##  ,#'     '#,    #''#        ,####,    ,#,          
            ##       ##  ##   ,#'  ##            #'  '#       #'       ,# #          
            ##       ##  #######   ##           ,######,      #####,      #          
            '#,     ,#'  ##    ##  '#,     ,#' ,#      #,     #,   #      #          
             '#######'   ##     ##  '#######'  #'      '#     '####' #    #          



                #########################################################
                #                        -***-                          #
                #          Department of theory and spectroscopy        #
                #                                                       #
                #                      Frank Neese                      #
                #                                                       #
                #     Directorship, Architecture, Infrastructure        #
                #                    SHARK, DRIVERS                     #
                #        Core code/Algorithms in most modules           #
                #                                                       #
                #        Max Planck Institute fuer Kohlenforschung      #
                #                Kaiser Wilhelm Platz 1                 #
                #                 D-45470 Muelheim/Ruhr                 #
                #                      Germany                          #
                #                                                       #
                #                  All rights reserved                  #
                #                        -***-                          #
                #########################################################


                         Program Version 6.1.0  -  RELEASE   -
                                (GIT: $679e74b7b5$)
                          ($2025-06-10 18:02:51 +0200$)


 With contributions from (in alphabetic order):
[Max-Planck-Institut fuer Kohlenforschung]                               
  Daniel Aravena         : Magnetic Suceptibility                        
  Michael Atanasov       : Ab Initio Ligand Field Theory (pilot matlab implementation)
  Alexander A. Auer      : GIAO ZORA, VPT2 properties, NMR spectrum      
  Ute Becker             : All parallelization in ORCA, NUMFREQ, NUMCALC 
  Giovanni Bistoni       : ED, misc. LED, open-shell LED, HFLD           
  Dmytro Bykov           : pre 5.0 version of the SCF Hessian            
  Marcos Casanova-Páez   : Triplet and SCS-CIS(D). UHF-(DLPNO)-IP/EA/STEOM-CCSD. UHF-CVS-IP/STEOM-CCSD   
  Vijay G. Chilkuri      : MRCI spin determinant printing, contributions to CSF-ICE 
  Pauline Colinet        : FMM embedding                                 
  Dipayan Datta          : RHF DLPNO-CCSD density                        
  Achintya Kumar Dutta   : EOM-CC, STEOM-CC                              
  Nicolas Foglia         : Exact transition moments, OPA infrastructure, MCD improvements    
  Dmitry Ganyushin       : Spin-Orbit,Spin-Spin,Magnetic field MRCI      
  Miquel Garcia-Rates    : C-PCM and meta-GGA Hessian, CCSD/C-PCM, Gaussian charge scheme 
  Tiago L. C. Gouveia    : GS-ROHF, GS-ROCIS                             
  Yang Guo               : DLPNO-NEVPT2, F12-NEVPT2, CIM, IAO-localization        
  Andreas Hansen         : Spin unrestricted coupled pair/coupled cluster methods 
  Ingolf Harden          : AUTO-CI MPn and infrastructure                
  Benjamin Helmich-Paris : MC-RPA, TRAH-(SCF,CASSCF), AVAS, COSX integrals, SCF dyn. polar., MC-PDFT, srDFT 
  Lee Huntington         : MR-EOM, pCC                                   
  Robert Izsak           : Overlap fitted RIJCOSX, COSX-SCS-MP3, EOM     
  Riya Kayal             : Wick's Theorem for AUTO-CI, AUTO-CI UHF-CCSDT 
  Emily Kempfer          : AUTO-CI RHF CISDT and CCSDT, approximate NEVPT4
  Christian Kollmar      : KDIIS, OOCD, Brueckner-CCSD(T), CCSD density, CASPT2, CASPT2-K, improved NEVPT2 
  Axel Koslowski         : Symmetry handling                             
  Simone Kossmann        : meta-GGA functionals, TD-DFT gradient, OOMP2, (MP2 Hessian; deprecated post 5.0) 
  Lucas Lang             : DCDCAS, Hyperfine gauge corrections, ICE-SOC+SSC
  Marvin Lechner         : AUTO-CI (C++ implementation), FIC-MRCC        
  Spencer Leger          : CASSCF response                               
  Dagmar Lenk            : GEPOL surface, SMD, ORCA-2-JSON               
  Dimitrios Liakos       : Extrapolation schemes; Compound Job, Property file
  Dimitrios Manganas     : Further ROCIS development; embedding schemes. LFT, Crystal Embedding 
  Dimitrios Pantazis     : SARC Basis sets                               
  Anastasios Papadopoulos: AUTO-CI, single reference methods and gradients 
  Taras Petrenko         : pre 6.0 DFT Hessian and TD-DFT gradient,  ECA, NRVS 
  Petra Pikulova         : Analytic Raman intensities                    
  Peter Pinski           : DLPNO-MP2, DLPNO-MP2 Gradient                 
  Shashank Vittal Rao    : ES-AILFT, MagRelax                            
  Christoph Reimann      : Effective Core Potentials                     
  Marius Retegan         : Local ZFS, SOC                                
  Christoph Riplinger    : Optimizer, TS searches, QM/MM, DLPNO-CCSD(T), (RO)-DLPNO pert. Triples 
  Michael Roemelt        : Original ROCIS implementation, recursive CI coupling coefficients
  Masaaki Saitow         : Open-shell DLPNO-CCSD energy and density      
  Barbara Sandhoefer     : DKH picture change effects                    
  Yorick L. A. Schmerwitz: GMF and freeze-and-release deltaSCF, NEB S-IDPP initial path                    
  Kantharuban Sivalingam : CASSCF convergence/infrastructure, NEVPT2, NEVPT3, NEVPT4(SD), FIC-MRCI and CEPA variants
  Bernardo de Souza      : ESD, SOC TD-DFT                               
  Georgi L. Stoychev     : AutoAux, RI-MP2 NMR, DLPNO-MP2 response, X2C  
  Van Anh Tran           : RI-MP2 g-tensors                              
  Willem Van den Heuvel  : Paramagnetic NMR                              
  Zikuan Wang            : NOTCH, Electric field optimization            
  Frank Wennmohs         : Technical directorship and infrastructure     
  Hang Xu                : AUTO-CI-Response properties                   
                                                                         
[FACCTs GmbH]                                                            
  Markus Bursch, Nicolas Foglia, Miquel Garcia-Rates, Ingolf Harden, Hagen Neugebauer, Anastasios Papadopoulos, 
  Christoph Riplinger, Bernardo de Souza, Georgi L. Stoychev                                                    
                                                                 
  APM, various basis sets, CI-OPT, improved COSX, DLPNO-Multilevel,           
  DOCKER, DRACO, updates on ESD, Fragmentator, GOAT, IRC, LR-CPCM, L-BFGS, MBIS, meta-GGA TD-DFT gradient, ML-optimized integration grids, 
  MM, NACMEs, nearIR, NEB, NEB-TS, NL-DFT gradient (VV10), 2- and 3-layer-ONIOM, interface openCOSMO-RS, QMMM,   
  Crystal-QMMM, RESP, rigid body optimization, SF, symmetry and pop. for TD-DFT, various functionals, SOLVATOR                                   
                                                                         
[Other institutions]                                                     
  V. Asgeirsson          : NEB                                           
  Christoph Bannwarth    : sTDA-DFT, sTD-DFT, PBEh-3c, B97-3c, D3        
  Giovanni Bistoni       : ETS/NOCV, ADLD/ADEX, COVALED                  
  Martin Brehm           : Molecular dynamics                            
  Ronald Cardenas        : ETS/NOCV                                      
  Martina Colucci        : COVALED                                       
  Sebastian Ehlert       : rSCAN, r2SCAN, r2SCAN-3c, D4, dhf basis sets  
  Marvin Friede          : D4 for Fr, Ra, Ac-Lr                          
  Lars Goerigk           : TD-DFT with DH, B97 family of functionals     
  Stefan Grimme          : VdW corrections, initial TS optimization, DFT functionals, gCP, sTDA/sTD-DF 
  Waldemar Hujo          : DFT-NL                                        
  H. Jonsson             : NEB                                           
  Holger Kruse           : gCP                                           
  Marcel Mueller         : wB97X-3c, vDZP basis set                      
  Hagen Neugebauer       : wr2SCAN, Native XTB                           
  Gianluca Regni         : ADLD/ADEX                                     
  Tobias Risthaus        : pre 6.0 range-separated hybrid DFT and stability analysis
  Lukas Wittmann         : regularized MP2, r2SCAN double-hybrids, wr2SCAN        
                                                                         
We gratefully acknowledge several colleagues who have allowed us to      
interface, adapt or use parts of their codes:                            
  Ed Valeev, F. Pavosevic, A. Kumar             : LibInt (2-el integral package), F12 methods 
  Garnet Chan, S. Sharma, J. Yang, R. Olivares  : DMRG                   
  Ulf Ekstrom                                   : XCFun DFT Library      
  Mihaly Kallay                                 : mrcc  (arbitrary order and MRCC methods)
  Frank Weinhold                                : gennbo (NPA and NBO analysis)           
  Simon Mueller                                 : openCOSMO-RS                            
  Christopher J. Cramer and Donald G. Truhlar   : smd solvation model                     
  S Lehtola, MJT Oliveira, MAL Marques          : LibXC Library                           
  Liviu Ungur et al                             : ANISO software                          


 Your calculation uses the libint2 library for the computation of 2-el integrals
 For citations please refer to: http://libint.valeyev.net

 Your ORCA version has been built with support for libXC version: 7.0.0
 For citations please refer to: https://libxc.gitlab.io

 This ORCA versions uses:
   CBLAS   interface :  Fast vector & matrix operations
   LAPACKE interface :  Fast linear algebra routines
   SCALAPACK package :  Parallel linear algebra routines
   Shared memory     :  Shared parallel matrices


  ***********************************
  * Starting time: Fri Apr 10 14:49:27 2026
  * Host name:     Tobiass-MBP.fritz.box
  * Process ID:    1974
  * Working dir.:  /Users/user/QC/01_orca/cubes
  ***********************************

NOTE: MaxCore=2048 MB was set to SCF,MP2,MDCI,CIPSI,MRCI,RASCI and CIS
      => If you want to overwrite this, your respective input block should be placed after the MaxCore statement
Warning: RI is on but no J-basis has been assigned. Assigning Def2/J (nothing to worry about!)
================================================================================

----- Orbital basis set information -----
Your calculation utilizes the basis: 6-31G
   H-He, Li-Ne : W. J. Hehre, R. Ditchfield and J.A. Pople, J. Chem. Phys. 56, 2257 (1972).
                 Note: He and Ne are unpublished basis sets taken from the Gaussian program.
                 Note: Li and B from J. D. Dill and J. A. Pople, J. Chem. Phys. 62, 2921 (1975).
   Na - Ar     : M. M. Francl, W. J. Pietro, W. J. Hehre, J. S. Binkley, M. S. Gordon, 
                 D. J. DeFrees and J. A. Pople, J. Chem. Phys. 77, 3654 (1982).
   K - Zn      : V. A. Rassolov, J. A. Pople, M. A. Ratner, and T. L. Windus, J. Chem. Phys. 109, 1223 (1998).

----- AuxJ basis set information -----
Your calculation utilizes the auxiliary basis: def2/J
   H-Rn: F. Weigend, Phys. Chem. Chem. Phys. 8, 1057 (2006).
   Fr-Lr: K. Eichkorn, F. Weigend, O. Treutler, R. Ahlrichs; Theor. Chem. Acc. 97, 119 (1997).

================================================================================
                                        WARNINGS
                       Please study these warnings very carefully!
================================================================================


WARNING: Geometry Optimization
  ===> : Switching off AutoStart
         For restart on a previous wavefunction, please use MOREAD

================================================================================
                                       INPUT FILE
================================================================================
NAME = opt.inp
|  1> ! OPT B3LYP 6-31G
|  2> 
|  3> %maxcore 2048
|  4> 
|  5> %pal
|  6>    nprocs 8
|  7> end
|  8> 
|  9> * xyz 0 1 
| 10>  C     0.000000     0.000000     0.000000
| 11>  O     0.000000     0.000000     1.400000
| 12>  O     1.056551     0.000000    -0.610000
| 13>  H     0.895669     0.000000     1.716667
| 14>  C    -1.255737     0.000000    -0.725000
| 15>  C    -2.468172     0.000000    -0.025000
| 16>  C    -3.680608     0.000000    -0.725000
| 17>  C    -3.680608     0.000000    -2.125000
| 18>  C    -2.468172     0.000000    -2.825000
| 19>  C    -1.255737     0.000000    -2.125000
| 20>  H    -2.468172     0.000000     1.064000
| 21>  H    -4.623710     0.000000    -0.180500
| 22>  H    -4.623710     0.000000    -2.669500
| 23>  H    -2.468172     0.000000    -3.914000
| 24>  H    -0.312635     0.000000    -2.669500
| 25> *
| 26> 
| 27>                          ****END OF INPUT****
================================================================================

                       *****************************
                       * Geometry Optimization Run *
                       *****************************

Geometry optimization settings:
Update method            Update   .... BFGS
Choice of coordinates    CoordSys .... (2022) Redundant Internals
Initial Hessian          InHess   .... Almloef's Model
Max. no of cycles        MaxIter  .... 50

Convergence Tolerances:
Energy Change            TolE     ....  5.0000e-06 Eh
Max. Gradient            TolMAXG  ....  3.0000e-04 Eh/bohr
RMS Gradient             TolRMSG  ....  1.0000e-04 Eh/bohr
Max. Displacement        TolMAXD  ....  4.0000e-03 bohr
RMS Displacement         TolRMSD  ....  2.0000e-03 bohr
Strict Convergence                .... False

------------------------------------------------------------------------------
                        ORCA OPTIMIZATION COORDINATE SETUP
------------------------------------------------------------------------------

The optimization will be done in redundant internal coordinates (2022)
Making redundant internal coordinates   ...  (2022 redundants) done
Evaluating the initial hessian          ...  (Almloef) done
Evaluating the coordinates              ...  done
Calculating the B-matrix                .... done
Calculating the G-matrix                .... done
The number of degrees of freedom        ....   67

    -----------------------------------------------------------------
                    Redundant Internal Coordinates


    -----------------------------------------------------------------
         Definition                    Initial Value    Approx d2E/dq
    -----------------------------------------------------------------
      1. B(O   1,C   0)                  1.4000         0.539413   
      2. B(O   2,C   0)                  1.2200         1.044960   
      3. B(H   3,O   1)                  0.9500         0.539412   
      4. B(C   4,C   0)                  1.4500         0.501201   
      5. B(C   5,C   4)                  1.4000         0.602261   
      6. B(C   6,C   5)                  1.4000         0.602259   
      7. B(C   7,C   6)                  1.4000         0.602260   
      8. B(C   8,C   7)                  1.4000         0.602259   
      9. B(C   9,C   8)                  1.4000         0.602261   
     10. B(C   9,C   4)                  1.4000         0.602260   
     11. B(H  10,C   5)                  1.0890         0.361425   
     12. B(H  11,C   6)                  1.0890         0.361425   
     13. B(H  12,C   7)                  1.0890         0.361425   
     14. B(H  13,C   8)                  1.0890         0.361425   
     15. B(H  14,C   9)                  1.0890         0.361425   
     16. A(O   2,C   0,C   4)          120.0000         0.456043   
     17. A(O   1,C   0,C   4)          120.0000         0.405023   
     18. A(O   1,C   0,O   2)          120.0000         0.459127   
     19. A(C   0,O   1,H   3)          109.4712         0.363669   
     20. A(C   0,C   4,C   5)          120.0000         0.415693   
     21. A(C   0,C   4,C   9)          120.0000         0.415693   
     22. A(C   5,C   4,C   9)          120.0000         0.429561   
     23. A(C   4,C   5,H  10)          120.0000         0.351399   
     24. A(C   4,C   5,C   6)          120.0000         0.429561   
     25. A(C   6,C   5,H  10)          120.0000         0.351399   
     26. A(C   5,C   6,H  11)          120.0000         0.351399   
     27. A(C   5,C   6,C   7)          120.0000         0.429561   
     28. A(C   7,C   6,H  11)          120.0000         0.351399   
     29. A(C   8,C   7,H  12)          120.0000         0.351399   
     30. A(C   6,C   7,H  12)          120.0000         0.351399   
     31. A(C   6,C   7,C   8)          120.0000         0.429561   
     32. A(C   7,C   8,C   9)          120.0000         0.429561   
     33. A(C   9,C   8,H  13)          120.0000         0.351399   
     34. A(C   7,C   8,H  13)          120.0000         0.351399   
     35. A(C   4,C   9,C   8)          120.0000         0.429561   
     36. A(C   8,C   9,H  14)          120.0000         0.351399   
     37. A(C   4,C   9,H  14)          120.0000         0.351399   
     38. D(H   3,O   1,C   0,O   2)      0.0000         0.021008   
     39. D(H   3,O   1,C   0,C   4)    180.0000         0.021008   
     40. D(C   5,C   4,C   0,O   2)    180.0000         0.017111   
     41. D(C   9,C   4,C   0,O   1)    180.0000         0.017111   
     42. D(C   5,C   4,C   0,O   1)      0.0000         0.017111   
     43. D(C   9,C   4,C   0,O   2)      0.0000         0.017111   
     44. D(C   6,C   5,C   4,C   0)    180.0000         0.025015   
     45. D(H  10,C   5,C   4,C   9)    180.0000         0.025015   
     46. D(H  10,C   5,C   4,C   0)      0.0000         0.025015   
     47. D(C   6,C   5,C   4,C   9)      0.0000         0.025015   
     48. D(H  11,C   6,C   5,C   4)    180.0000         0.025015   
     49. D(H  11,C   6,C   5,H  10)      0.0000         0.025015   
     50. D(C   7,C   6,C   5,H  10)    180.0000         0.025015   
     51. D(C   7,C   6,C   5,C   4)      0.0000         0.025015   
     52. D(C   8,C   7,C   6,C   5)      0.0000         0.025015   
     53. D(H  12,C   7,C   6,H  11)      0.0000         0.025015   
     54. D(H  12,C   7,C   6,C   5)    180.0000         0.025015   
     55. D(C   8,C   7,C   6,H  11)    180.0000         0.025015   
     56. D(H  13,C   8,C   7,H  12)      0.0000         0.025015   
     57. D(H  13,C   8,C   7,C   6)    180.0000         0.025015   
     58. D(C   9,C   8,C   7,H  12)    180.0000         0.025015   
     59. D(C   9,C   8,C   7,C   6)      0.0000         0.025015   
     60. D(H  14,C   9,C   8,H  13)      0.0000         0.025015   
     61. D(H  14,C   9,C   8,C   7)    180.0000         0.025015   
     62. D(C   4,C   9,C   8,H  13)    180.0000         0.025015   
     63. D(C   4,C   9,C   8,C   7)      0.0000         0.025015   
     64. D(H  14,C   9,C   4,C   5)    180.0000         0.025015   
     65. D(H  14,C   9,C   4,C   0)      0.0000         0.025015   
     66. D(C   8,C   9,C   4,C   5)      0.0000         0.025015   
     67. D(C   8,C   9,C   4,C   0)    180.0000         0.025015   
    -----------------------------------------------------------------

Number of atoms                         .... 15
Number of degrees of freedom            .... 67


         *************************************************************
         *                GEOMETRY OPTIMIZATION CYCLE   1            *
         *************************************************************
---------------------------------
CARTESIAN COORDINATES (ANGSTROEM)
---------------------------------
  C      0.000000    0.000000    0.000000
  O      0.000000    0.000000    1.400000
  O      1.056551    0.000000   -0.610000
  H      0.895669    0.000000    1.716667
  C     -1.255737    0.000000   -0.725000
  C     -2.468172    0.000000   -0.025000
  C     -3.680608    0.000000   -0.725000
  C     -3.680608    0.000000   -2.125000
  C     -2.468172    0.000000   -2.825000
  C     -1.255737    0.000000   -2.125000
  H     -2.468172    0.000000    1.064000
  H     -4.623710    0.000000   -0.180500
  H     -4.623710    0.000000   -2.669500
  H     -2.468172    0.000000   -3.914000
  H     -0.312635    0.000000   -2.669500

----------------------------
CARTESIAN COORDINATES (A.U.)
----------------------------
  NO LB      ZA    FRAG     MASS         X           Y           Z
   0 C     6.0000    0    12.011    0.000000    0.000000    0.000000
   1 O     8.0000    0    15.999    0.000000    0.000000    2.645617
   2 O     8.0000    0    15.999    1.996592    0.000000   -1.152733
   3 H     1.0000    0     1.008    1.692569    0.000000    3.244030
   4 C     6.0000    0    12.011   -2.372999    0.000000   -1.370051
   5 C     6.0000    0    12.011   -4.664169    0.000000   -0.047243
   6 C     6.0000    0    12.011   -6.955341    0.000000   -1.370051
   7 C     6.0000    0    12.011   -6.955341    0.000000   -4.015668
   8 C     6.0000    0    12.011   -4.664169    0.000000   -5.338476
   9 C     6.0000    0    12.011   -2.372999    0.000000   -4.015668
  10 H     1.0000    0     1.008   -4.664169    0.000000    2.010669
  11 H     1.0000    0     1.008   -8.737546    0.000000   -0.341096
  12 H     1.0000    0     1.008   -8.737546    0.000000   -5.044624
  13 H     1.0000    0     1.008   -4.664169    0.000000   -7.396388
  14 H     1.0000    0     1.008   -0.590795    0.000000   -5.044624

--------------------------------
INTERNAL COORDINATES (ANGSTROEM)
--------------------------------
 C      0   0   0     0.000000000000     0.00000000     0.00000000
 O      1   0   0     1.400000000000     0.00000000     0.00000000
 O      1   2   0     1.220000006394   119.99999983     0.00000000
 H      2   1   3     0.950000498131   109.47123134     0.00000000
 C      1   2   3     1.450000142472   119.99999675   180.00000085
 C      5   1   2     1.399999510437   119.99999168     0.00000000
 C      6   5   1     1.400000376463   119.99999733   180.00000000
 C      7   6   5     1.400000000000   119.99999110     0.00000000
 C      8   7   6     1.400000376463   119.99999110     0.00000000
 C      9   8   7     1.399999510437   119.99999733     0.00000000
 H      6   5   1     1.089000000000   120.00001157     0.00000000
 H      7   6   5     1.089000290360   120.00001772   180.00000121
 H      8   7   6     1.089000290360   119.99999118   180.00000085
 H      9   8   7     1.089000000000   119.99999110   180.00000000
 H     10   9   8     1.089000290360   119.99999725   180.00000000

---------------------------
INTERNAL COORDINATES (A.U.)
---------------------------
 C      0   0   0     0.000000000000     0.00000000     0.00000000
 O      1   0   0     2.645616587490     0.00000000     0.00000000
 O      1   2   0     2.305465895467   119.99999983     0.00000000
 H      2   1   3     1.795240768557   109.47123134     0.00000000
 C      1   2   3     2.740103163419   119.99999675   180.00000085
 C      5   1   2     2.645615662351   119.99999168     0.00000000
 C      6   5   1     2.645617298901   119.99999733   180.00000000
 C      7   6   5     2.645616587490   119.99999110     0.00000000
 C      8   7   6     2.645617298901   119.99999110     0.00000000
 C      9   8   7     2.645615662351   119.99999733     0.00000000
 H      6   5   1     2.057911759840   120.00001157     0.00000000
 H      7   6   5     2.057912308541   120.00001772   180.00000121
 H      8   7   6     2.057912308541   119.99999118   180.00000085
 H      9   8   7     2.057911759840   119.99999110   180.00000000
 H     10   9   8     2.057912308541   119.99999725   180.00000000

---------------------
BASIS SET INFORMATION
---------------------
There are 3 groups of distinct atoms

 Group   1 Type C   : 10s4p contracted to 3s2p pattern {631/31}
 Group   2 Type O   : 10s4p contracted to 3s2p pattern {631/31}
 Group   3 Type H   : 4s contracted to 2s pattern {31}

Atom   0C    basis set group =>   1
Atom   1O    basis set group =>   2
Atom   2O    basis set group =>   2
Atom   3H    basis set group =>   3
Atom   4C    basis set group =>   1
Atom   5C    basis set group =>   1
Atom   6C    basis set group =>   1
Atom   7C    basis set group =>   1
Atom   8C    basis set group =>   1
Atom   9C    basis set group =>   1
Atom  10H    basis set group =>   3
Atom  11H    basis set group =>   3
Atom  12H    basis set group =>   3
Atom  13H    basis set group =>   3
Atom  14H    basis set group =>   3
---------------------------------
AUXILIARY/J BASIS SET INFORMATION
---------------------------------
There are 3 groups of distinct atoms

 Group   1 Type C   : 12s5p4d2f1g contracted to 6s4p3d1f1g pattern {711111/2111/211/2/1}
 Group   2 Type O   : 12s5p4d2f1g contracted to 6s4p3d1f1g pattern {711111/2111/211/2/1}
 Group   3 Type H   : 5s2p1d contracted to 3s1p1d pattern {311/2/1}

Atom   0C    basis set group =>   1
Atom   1O    basis set group =>   2
Atom   2O    basis set group =>   2
Atom   3H    basis set group =>   3
Atom   4C    basis set group =>   1
Atom   5C    basis set group =>   1
Atom   6C    basis set group =>   1
Atom   7C    basis set group =>   1
Atom   8C    basis set group =>   1
Atom   9C    basis set group =>   1
Atom  10H    basis set group =>   3
Atom  11H    basis set group =>   3
Atom  12H    basis set group =>   3
Atom  13H    basis set group =>   3
Atom  14H    basis set group =>   3


           ************************************************************
           *        Program running with 8 parallel MPI-processes     *
           *              working on a common directory               *
           ************************************************************
------------------------------------------------------------------------------
                             ORCA STARTUP CALCULATIONS
                           -- RI-GTO INTEGRALS CHOSEN --
------------------------------------------------------------------------------
------------------------------------------------------------------------------
                   ___                                                        
                  /   \      - P O W E R E D   B Y -                         
                 /     \                                                     
                 |  |  |   _    _      __       _____    __    __             
                 |  |  |  | |  | |    /  \     |  _  \  |  |  /  |          
                  \  \/   | |  | |   /    \    | | | |  |  | /  /          
                 / \  \   | |__| |  /  /\  \   | |_| |  |  |/  /          
                |  |  |   |  __  | /  /__\  \  |    /   |      \           
                |  |  |   | |  | | |   __   |  |    \   |  |\   \          
                \     /   | |  | | |  |  |  |  | |\  \  |  | \   \       
                 \___/    |_|  |_| |__|  |__|  |_| \__\ |__|  \__/        
                                                                              
                      - O R C A' S   B I G   F R I E N D -                    
                                      &                                       
                       - I N T E G R A L  F E E D E R -                       
                                                                              
 v1 FN, 2020, v2 2021, v3 2022-2024                                           
------------------------------------------------------------------------------


----------------------
SHARK INTEGRAL PACKAGE
----------------------

Number of atoms                             ...     15
Number of basis functions                   ...     93
Number of shells                            ...     57
Maximum angular momentum                    ...      1
Integral batch strategy                     ... SHARK/LIBINT Hybrid
RI-J (if used) integral strategy            ... SPLIT-RIJ (Revised 2003 algorithm where possible)
Printlevel                                  ...      1
Contraction scheme used                     ... SEGMENTED contraction
Prescreening option                         ... SCHWARTZ
   Thresh                                   ... 2.500e-11
   Tcut                                     ... 2.500e-12
   Tpresel                                  ... 2.500e-12 
Coulomb Range Separation                    ... NOT USED
Exchange Range Separation                   ... NOT USED
Multipole approximations                    ... NOT USED
Finite Nucleus Model                        ... NOT USED
CABS basis                                  ... NOT available
Auxiliary Coulomb fitting basis             ... AVAILABLE
   # of basis functions in Aux-J            ...    507
   # of shells in Aux-J                     ...    165
   Maximum angular momentum in Aux-J        ...      4
Auxiliary J/K fitting basis                 ... NOT available
Auxiliary Correlation fitting basis         ... NOT available
Auxiliary 'external' fitting basis          ... NOT available

Checking pre-screening integrals            ... done (  0.0 sec) Dimension = 57
   => SHARK Basis and OBASIS are compatible. Storing Pre-screening
Shell pair information
Shell pair cut-off parameter TPreSel        ...   2.5e-12
Total number of shell pairs                 ...      1653
Shell pairs after pre-screening             ...      1534
Total number of primitive shell pairs       ...     11532
Primitive shell pairs kept                  ...      6807
          la=0 lb=0:    697 shell pairs
          la=1 lb=0:    669 shell pairs
          la=1 lb=1:    168 shell pairs

Checking whether 4 symmetric matrices of dimension 93 fit in memory
:Max Core in MB      =   2048.00
 MB in use           =      5.25
 MB left             =   2042.75
 MB needed           =      0.13
 Data fit in memory  = YES
Calculating RI/J V-Matrix + Cholesky decomp.... done (  0.0 sec)
Calculating Nuclear repulsion               ... done (  0.0 sec) ENN=    403.605183989703 Eh

Diagonalization of the overlap matrix:
Smallest eigenvalue                        ... 6.477e-04
Time for diagonalization                   ...    0.003 sec
Threshold for overlap eigenvalues          ... 1.000e-07
Number of eigenvalues below threshold      ... 0
Time for construction of square roots      ...    0.002 sec
Total time needed                          ...    0.007 sec

-------------------
DFT GRID GENERATION
-------------------

General Integration Accuracy     IntAcc      ... 4.388
Radial Grid Type                 RadialGrid  ... OptM3 with GC (2021)
Angular Grid (max. ang.)         AngularGrid ... 4 (Lebedev-302)
Angular grid pruning method      GridPruning ... 4 (adaptive)
Weight generation scheme         WeightScheme... mBecke (2022)
Basis function cutoff            BFCut       ... 1.0000e-11
Integration weight cutoff        WCut        ... 1.0000e-14
Partially contracted basis set               ... off
Rotationally invariant grid construction     ... off
Angular grids for H and He will be reduced by one unit

Total number of grid points                  ...    73581
Total number of batches                      ...     1159
Average number of points per batch           ...       63
Average number of grid points per atom       ...     4905

--------------------
COSX GRID GENERATION
--------------------

GRIDX 1
-------
General Integration Accuracy     IntAcc      ... 3.816
Radial Grid Type                 RadialGrid  ... OptM3 with GC (2021)
Angular Grid (max. ang.)         AngularGrid ... 1 (Lebedev-50)
Angular grid pruning method      GridPruning ... 4 (adaptive)
Weight generation scheme         WeightScheme... mBecke (2022)
Basis function cutoff            BFCut       ... 1.0000e-11
Integration weight cutoff        WCut        ... 1.0000e-14
Partially contracted basis set               ... on
Rotationally invariant grid construction     ... off
Angular grids for H and He will be reduced by one unit

Total number of grid points                  ...     9391
Total number of batches                      ...       80
Average number of points per batch           ...      117
Average number of grid points per atom       ...      626
UseSFitting                                  ... on

GRIDX 2
-------
General Integration Accuracy     IntAcc      ... 4.020
Radial Grid Type                 RadialGrid  ... OptM3 with GC (2021)
Angular Grid (max. ang.)         AngularGrid ... 2 (Lebedev-110)
Angular grid pruning method      GridPruning ... 4 (adaptive)
Weight generation scheme         WeightScheme... mBecke (2022)
Basis function cutoff            BFCut       ... 1.0000e-11
Integration weight cutoff        WCut        ... 1.0000e-14
Partially contracted basis set               ... on
Rotationally invariant grid construction     ... off
Angular grids for H and He will be reduced by one unit

Total number of grid points                  ...    20825
Total number of batches                      ...      169
Average number of points per batch           ...      123
Average number of grid points per atom       ...     1388
UseSFitting                                  ... on

GRIDX 3
-------
General Integration Accuracy     IntAcc      ... 4.338
Radial Grid Type                 RadialGrid  ... OptM3 with GC (2021)
Angular Grid (max. ang.)         AngularGrid ... 3 (Lebedev-194)
Angular grid pruning method      GridPruning ... 4 (adaptive)
Weight generation scheme         WeightScheme... mBecke (2022)
Basis function cutoff            BFCut       ... 1.0000e-11
Integration weight cutoff        WCut        ... 1.0000e-14
Partially contracted basis set               ... on
Rotationally invariant grid construction     ... off
Angular grids for H and He will be reduced by one unit

Total number of grid points                  ...    45891
Total number of batches                      ...      365
Average number of points per batch           ...      125
Average number of grid points per atom       ...     3059
UseSFitting                                  ... on
Grids setup in   0.6 sec
Initializing property integral containers    ... done (  0.0 sec)

SHARK setup successfully completed in   0.6 seconds

Maximum memory used throughout the entire STARTUP-calculation: 18.3 MB


           ************************************************************
           *        Program running with 8 parallel MPI-processes     *
           *              working on a common directory               *
           ************************************************************
-------------------------------------------------------------------------------
                                 ORCA GUESS
                   Start orbitals & Density for SCF / CASSCF
-------------------------------------------------------------------------------

------------
SCF SETTINGS
------------
Hamiltonian:
 Density Functional     Method          .... DFT(GTOs)
 Exchange Functional    Exchange        .... B88
   X-Alpha parameter    XAlpha          ....  0.666667
   Becke's b parameter  XBeta           ....  0.004200
 Correlation Functional Correlation     .... LYP
 LDA part of GGA corr.  LDAOpt          .... VWN-5
 Gradients option       PostSCFGGA      .... off
 Hybrid DFT is turned on
   Fraction HF Exchange ScalHFX         ....  0.200000
   Scaling of DF-GGA-X  ScalDFX         ....  0.720000
   Scaling of DF-GGA-C  ScalDFC         ....  0.810000
   Scaling of DF-LDA-C  ScalLDAC        ....  1.000000
   Perturbative correction              ....  0.000000
   NL short-range parameter             ....  4.800000
 RI-approximation to the Coulomb term is turned on
   Number of AuxJ basis functions       .... 507
   RIJ-COSX (HFX calculated with COS-X)).... on


General Settings:
 Integral files         IntName         .... opt
 Hartree-Fock type      HFTyp           .... RHF
 Total Charge           Charge          ....    0
 Multiplicity           Mult            ....    1
 Number of Electrons    NEL             ....   64
 Basis Dimension        Dim             ....   93
 Nuclear Repulsion      ENuc            ....    403.6051839897 Eh

Convergence Acceleration:
 AO-DIIS                CNVDIIS         .... on
   Start iteration      DIISMaxIt       ....    12
   Startup error        DIISStart       ....  0.200000
   # of expansion vecs  DIISMaxEq       ....     5
   Bias factor          DIISBfac        ....   1.050
   Max. coefficient     DIISMaxC        ....  10.000
 MO-DIIS                CNVKDIIS        .... off
 Trust-Rad. Augm. Hess. CNVTRAH         .... auto
   Auto Start mean grad. ratio tolernc. ....  1.125000
   Auto Start start iteration           ....    50
   Auto Start num. interpolation iter.  ....    10
   Max. Number of Micro iterations      ....    24
   Max. Number of Macro iterations      .... Maxiter - #DIIS iter
   Number of Davidson start vectors     ....     2
   Converg. threshold    (grad. norm)   ....   1.000e-05
   Grad. Scal. Fac. for Micro threshold ....   0.100
   Minimum threshold for Micro iter.    ....   1.000e-02
   NR start threshold (gradient norm)   ....   1.000e-04
   Initial trust radius                 ....   0.400
   Minimum AH scaling param. (alpha)    ....   1.000
   Maximum AH scaling param. (alpha)    .... 1000.000
   Quad. conv. algorithm                .... NR
   White noise on init. David. guess    .... on
   Maximum white noise                  ....   0.010
   Pseudo random numbers                .... off
   Inactive MOs                         .... canonical
   Orbital update algorithm             .... Taylor
   Preconditioner                       .... Diag
   Full preconditioner red. dimension   ....   250
 SOSCF                 CNVSOSCF           .... on
   Start iteration     SOSCFMaxIt         ....   150
   Startup grad/error  SOSCFStart         ....  0.003300
   Hessian update      SOSCFHessUp        .... L-BFGS
   Autom. constraints  SOSCFAutoConstrain .... off
 Level Shifting         CNVShift        .... on
   Level shift para.    LevelShift      ....    0.2500
   Turn off err/grad.   ShiftErr        ....    0.0010
 Zerner damping         CNVZerner       .... off
 Static damping         CNVDamp         .... on
   Fraction old density DampFac         ....    0.7000
   Max. Damping (<1)    DampMax         ....    0.9800
   Min. Damping (>=0)   DampMin         ....    0.0000
   Turn off err/grad.   DampErr         ....    0.1000

SCF Procedure:
 Maximum # iterations   MaxIter         ....   125
 SCF integral mode      SCFMode         .... Direct
   Integral package                     .... SHARK and LIBINT hybrid scheme
 Reset frequency        DirectResetFreq ....    20
 Integral Threshold     Thresh          ....  2.500e-11 Eh
 Primitive CutOff       TCut            ....  2.500e-12 Eh

Convergence Tolerance:
 Convergence Check Mode ConvCheckMode   .... Total+1el-Energy
 Convergence forced     ConvForced      .... 0
 Energy Change          TolE            ....  1.000e-08 Eh
 1-El. energy change                    ....  1.000e-05 Eh
 Orbital Gradient       TolG            ....  1.000e-05
 Orbital Rotation angle TolX            ....  1.000e-05
 DIIS Error             TolErr          ....  5.000e-07

------------------------------
INITIAL GUESS: MODEL POTENTIAL
------------------------------
Loading Hartree-Fock densities                     ... done
Calculating cut-offs                               ... done
Initializing the effective Hamiltonian             ... done
Setting up the integral package (SHARK)            ... done
Starting the Coulomb interaction                   ... done (   0.0 sec)
Making the grid                                    ... done (   0.1 sec)
Mapping shells                                     ... done
Starting the XC term evaluation                    ... done (   0.0 sec)
  promolecular density results
     # of electrons  =     63.994804759
     EX              =    -54.143162335
     EC              =     -2.186297143
     EX+EC           =    -56.329459478
Transforming the Hamiltonian                       ... done (   0.0 sec)
Diagonalizing the Hamiltonian                      ... done (   0.0 sec)
Back transforming the eigenvectors                 ... done (   0.0 sec)
Now organizing SCF variables                       ... done
                      ------------------
                      INITIAL GUESS DONE (   0.1 sec)
                      ------------------
             **** ENERGY FILE WAS UPDATED (opt.en.tmp) ****
Finished Guess after   0.3 sec
Maximum memory used throughout the entire GUESS-calculation: 8.0 MB


           ************************************************************
           *        Program running with 8 parallel MPI-processes     *
           *              working on a common directory               *
           ************************************************************

-------------------------------------------------------------------------------------------
                                      ORCA LEAN-SCF
                              memory conserving SCF solver
-------------------------------------------------------------------------------------------

----------------------------------------D-I-I-S--------------------------------------------
Iteration    Energy (Eh)           Delta-E    RMSDP     MaxDP     DIISErr   Damp  Time(sec)
-------------------------------------------------------------------------------------------
               ***  Starting incremental Fock matrix formation  ***
    1    -420.2138850841570274     0.00e+00  2.14e-02  1.09e-01  2.80e-01  0.700   0.3
    2    -420.3324171357045316    -1.19e-01  1.29e-02  6.22e-02  1.02e-01  0.700   0.2
                               ***Turning on AO-DIIS***
    3    -420.3749064143715941    -4.25e-02  4.67e-03  1.37e-02  3.68e-02  0.700   0.2
    4    -420.4020176493231702    -2.71e-02  7.38e-03  1.99e-02  1.66e-02  0.000   0.2
    5    -420.4623284765914377    -6.03e-02  1.81e-03  6.42e-03  6.11e-03  0.000   0.2
                              *** Initializing SOSCF ***
---------------------------------------S-O-S-C-F--------------------------------------
Iteration    Energy (Eh)           Delta-E    RMSDP     MaxDP     MaxGrad    Time(sec)
--------------------------------------------------------------------------------------
    6    -420.4627019739851903    -3.73e-04  5.35e-04  2.01e-03  2.88e-03     0.2
               *** Restarting incremental Fock matrix formation ***
    7    -420.4627358984112107    -3.39e-05  3.96e-04  2.42e-03  4.35e-04     0.3
    8    -420.4627270058539352     8.89e-06  2.51e-04  1.75e-03  1.03e-03     0.2
    9    -420.4627391913660404    -1.22e-05  5.67e-05  2.04e-04  4.72e-05     0.2
   10    -420.4627391307287780     6.06e-08  3.31e-05  1.81e-04  8.18e-05     0.2
   11    -420.4627392822068259    -1.51e-07  1.21e-05  4.46e-05  1.10e-05     0.2
   12    -420.4627392774689270     4.74e-09  7.33e-06  2.91e-05  1.59e-05     0.2
                 **** Energy Check signals convergence ****

               *****************************************************
               *                     SUCCESS                       *
               *           SCF CONVERGED AFTER  12 CYCLES          *
               *****************************************************

Recomputing exchange energy using gridx3       ... done (    0.283 sec)
Old exchange energy                            :    -10.962236393 Eh
New exchange energy                            :    -10.962263909 Eh
Exchange energy change after final integration :     -0.000027517 Eh
Total energy after final integration           :   -420.462766802 Eh
             **** ENERGY FILE WAS UPDATED (opt.en.tmp) ****

----------------
TOTAL SCF ENERGY
----------------

Total Energy       :       -420.46276680190437 Eh          -11441.37355 eV

Components:
Nuclear Repulsion  :        403.60518398970316 Eh           10982.65540 eV
Electronic Energy  :       -824.06792327509788 Eh          -22424.02821 eV
One Electron Energy:      -1370.63713750328566 Eh          -37296.93265 eV
Two Electron Energy:        546.56921422818778 Eh           14872.90444 eV

Virial components:
Potential Energy   :       -838.93256140565472 Eh          -22828.51558 eV
Kinetic Energy     :        418.46979460375042 Eh           11387.14202 eV
Virial Ratio       :          2.00476252342189

DFT components:
N(Alpha)           :       32.000026666818 electrons
N(Beta)            :       32.000026666818 electrons
N(Total)           :       64.000053333636 electrons
E(X)               :      -43.624378773022 Eh       
E(C)               :       -2.580602669611 Eh       
E(XC)              :      -46.204981442633 Eh       

---------------
SCF CONVERGENCE
---------------

  Last Energy change         ...   -4.7379e-09  Tolerance :   1.0000e-08
  Last MAX-Density change    ...    2.9066e-05  Tolerance :   1.0000e-07
  Last RMS-Density change    ...    7.3312e-06  Tolerance :   5.0000e-09
  Last DIIS Error            ...    2.8833e-03  Tolerance :   5.0000e-07
  Last Orbital Gradient      ...    1.5949e-05  Tolerance :   1.0000e-05
  Last Orbital Rotation      ...    3.1908e-05  Tolerance :   1.0000e-05


----------------
ORBITAL ENERGIES
----------------

  NO   OCC          E(Eh)            E(eV) 
   0   2.0000     -19.185983      -522.0771 
   1   2.0000     -19.138585      -520.7874 
   2   2.0000     -10.325893      -280.9818 
   3   2.0000     -10.208055      -277.7753 
   4   2.0000     -10.201905      -277.6079 
   5   2.0000     -10.200126      -277.5595 
   6   2.0000     -10.199757      -277.5495 
   7   2.0000     -10.197790      -277.4960 
   8   2.0000     -10.197231      -277.4808 
   9   2.0000      -1.113154       -30.2905 
  10   2.0000      -1.027763       -27.9668 
  11   2.0000      -0.871501       -23.7148 
  12   2.0000      -0.779682       -21.2162 
  13   2.0000      -0.757753       -20.6195 
  14   2.0000      -0.668172       -18.1819 
  15   2.0000      -0.620628       -16.8881 
  16   2.0000      -0.593032       -16.1372 
  17   2.0000      -0.543304       -14.7840 
  18   2.0000      -0.496202       -13.5023 
  19   2.0000      -0.466038       -12.6815 
  20   2.0000      -0.457669       -12.4538 
  21   2.0000      -0.449046       -12.2192 
  22   2.0000      -0.446409       -12.1474 
  23   2.0000      -0.432475       -11.7682 
  24   2.0000      -0.391559       -10.6549 
  25   2.0000      -0.371620       -10.1123 
  26   2.0000      -0.365185        -9.9372 
  27   2.0000      -0.351455        -9.5636 
  28   2.0000      -0.316390        -8.6094 
  29   2.0000      -0.274684        -7.4745 
  30   2.0000      -0.264204        -7.1893 
  31   2.0000      -0.260699        -7.0940 
  32   0.0000      -0.053131        -1.4458 
  33   0.0000      -0.008389        -0.2283 
  34   0.0000       0.053347         1.4516 
  35   0.0000       0.074568         2.0291 
  36   0.0000       0.098608         2.6833 
  37   0.0000       0.139830         3.8050 
  38   0.0000       0.155507         4.2316 
  39   0.0000       0.167268         4.5516 
  40   0.0000       0.181714         4.9447 
  41   0.0000       0.189121         5.1463 
  42   0.0000       0.213892         5.8203 
*Only the first 10 virtual orbitals were printed.

                    ********************************
                    * MULLIKEN POPULATION ANALYSIS *
                    ********************************

-----------------------
MULLIKEN ATOMIC CHARGES
-----------------------
   0 C :    0.402022
   1 O :   -0.569520
   2 O :   -0.398224
   3 H :    0.384999
   4 C :    0.049968
   5 C :   -0.117215
   6 C :   -0.139435
   7 C :   -0.105064
   8 C :   -0.139166
   9 C :   -0.114546
  10 H :    0.168050
  11 H :    0.134862
  12 H :    0.136167
  13 H :    0.136811
  14 H :    0.170291
Sum of atomic charges:   -0.0000000

--------------------------------
MULLIKEN REDUCED ORBITAL CHARGES
--------------------------------
  0 C s       :     2.985061  s :     2.985061
      pz      :     0.766692  p :     2.612917
      px      :     0.987358
      py      :     0.858867

  1 O s       :     3.901259  s :     3.901259
      pz      :     1.369152  p :     4.668261
      px      :     1.471792
      py      :     1.827316

  2 O s       :     3.932395  s :     3.932395
      pz      :     1.633753  p :     4.465830
      px      :     1.428580
      py      :     1.403498

  3 H s       :     0.615001  s :     0.615001

  4 C s       :     3.160074  s :     3.160074
      pz      :     0.878538  p :     2.789958
      px      :     0.863505
      py      :     1.047915

  5 C s       :     3.208033  s :     3.208033
      pz      :     1.019359  p :     2.909182
      px      :     0.937564
      py      :     0.952259

  6 C s       :     3.209140  s :     3.209140
      pz      :     0.930100  p :     2.930295
      px      :     1.001767
      py      :     0.998428

  7 C s       :     3.203358  s :     3.203358
      pz      :     0.947370  p :     2.901706
      px      :     0.987254
      py      :     0.967082

  8 C s       :     3.209433  s :     3.209433
      pz      :     1.019901  p :     2.929733
      px      :     0.910794
      py      :     0.999037

  9 C s       :     3.210190  s :     3.210190
      pz      :     0.963704  p :     2.904356
      px      :     0.995054
      py      :     0.945598

 10 H s       :     0.831950  s :     0.831950

 11 H s       :     0.865138  s :     0.865138

 12 H s       :     0.863833  s :     0.863833

 13 H s       :     0.863189  s :     0.863189

 14 H s       :     0.829709  s :     0.829709



                     *******************************
                     * LOEWDIN POPULATION ANALYSIS *
                     *******************************

----------------------
LOEWDIN ATOMIC CHARGES
----------------------
   0 C :    0.244682
   1 O :   -0.349068
   2 O :   -0.284559
   3 H :    0.300921
   4 C :   -0.073686
   5 C :   -0.083560
   6 C :   -0.114863
   7 C :   -0.094041
   8 C :   -0.113757
   9 C :   -0.074636
  10 H :    0.137343
  11 H :    0.121066
  12 H :    0.121463
  13 H :    0.122546
  14 H :    0.140149

-------------------------------
LOEWDIN REDUCED ORBITAL CHARGES
-------------------------------
  0 C s       :     2.899019  s :     2.899019
      pz      :     0.927245  p :     2.856299
      px      :     1.078143
      py      :     0.850911

  1 O s       :     3.581282  s :     3.581282
      pz      :     1.414356  p :     4.767786
      px      :     1.528305
      py      :     1.825126

  2 O s       :     3.626876  s :     3.626876
      pz      :     1.712529  p :     4.657683
      px      :     1.532344
      py      :     1.412809

  3 H s       :     0.699079  s :     0.699079

  4 C s       :     2.906373  s :     2.906373
      pz      :     1.082736  p :     3.167313
      px      :     1.049714
      py      :     1.034863

  5 C s       :     2.944342  s :     2.944342
      pz      :     1.108223  p :     3.139218
      px      :     1.071674
      py      :     0.959322

  6 C s       :     2.944429  s :     2.944429
      pz      :     1.081087  p :     3.170435
      px      :     1.091024
      py      :     0.998324

  7 C s       :     2.948109  s :     2.948109
      pz      :     1.086715  p :     3.145931
      px      :     1.093106
      py      :     0.966111

  8 C s       :     2.943964  s :     2.943964
      pz      :     1.094972  p :     3.169794
      px      :     1.076688
      py      :     0.998133

  9 C s       :     2.944080  s :     2.944080
      pz      :     1.071346  p :     3.130555
      px      :     1.104809
      py      :     0.954401

 10 H s       :     0.862657  s :     0.862657

 11 H s       :     0.878934  s :     0.878934

 12 H s       :     0.878537  s :     0.878537

 13 H s       :     0.877454  s :     0.877454

 14 H s       :     0.859851  s :     0.859851



                      *****************************
                      * MAYER POPULATION ANALYSIS *
                      *****************************

  NA   - Mulliken gross atomic population
  ZA   - Total nuclear charge
  QA   - Mulliken gross atomic charge
  VA   - Mayer's total valence
  BVA  - Mayer's bonded valence
  FA   - Mayer's free valence

  ATOM       NA         ZA         QA         VA         BVA        FA
  0 C      5.5980     6.0000     0.4020     3.8971     3.8971     0.0000
  1 O      8.5695     8.0000    -0.5695     1.8143     1.8143    -0.0000
  2 O      8.3982     8.0000    -0.3982     2.0346     2.0346    -0.0000
  3 H      0.6150     1.0000     0.3850     0.8342     0.8342    -0.0000
  4 C      5.9500     6.0000     0.0500     3.8165     3.8165    -0.0000
  5 C      6.1172     6.0000    -0.1172     3.8520     3.8520    -0.0000
  6 C      6.1394     6.0000    -0.1394     3.8870     3.8870     0.0000
  7 C      6.1051     6.0000    -0.1051     3.8829     3.8829     0.0000
  8 C      6.1392     6.0000    -0.1392     3.8811     3.8811    -0.0000
  9 C      6.1145     6.0000    -0.1145     3.8746     3.8746     0.0000
 10 H      0.8319     1.0000     0.1681     0.9395     0.9395     0.0000
 11 H      0.8651     1.0000     0.1349     0.9429     0.9429    -0.0000
 12 H      0.8638     1.0000     0.1362     0.9415     0.9415     0.0000
 13 H      0.8632     1.0000     0.1368     0.9426     0.9426    -0.0000
 14 H      0.8297     1.0000     0.1703     0.9431     0.9431    -0.0000

  Mayer bond orders larger than 0.100000
B(  0-C ,  1-O ) :   0.9771 B(  0-C ,  2-O ) :   1.8711 B(  0-C ,  4-C ) :   0.9736 
B(  1-O ,  3-H ) :   0.7788 B(  4-C ,  5-C ) :   1.3821 B(  4-C ,  9-C ) :   1.3933 
B(  5-C ,  6-C ) :   1.4225 B(  5-C , 10-H ) :   0.9208 B(  6-C ,  7-C ) :   1.4390 
B(  6-C , 11-H ) :   0.9320 B(  7-C ,  8-C ) :   1.4271 B(  7-C , 12-H ) :   0.9331 
B(  8-C ,  9-C ) :   1.4301 B(  8-C , 13-H ) :   0.9314 B(  9-C , 14-H ) :   0.9168 


-------
TIMINGS
-------

Total SCF time: 0 days 0 hours 0 min 3 sec 

Total time                  ....       3.373 sec
Sum of individual times     ....       3.108 sec  ( 92.1%)

SCF preparation             ....       0.262 sec  (  7.8%)
Fock matrix formation       ....       2.542 sec  ( 75.4%)
  Startup                   ....       0.019 sec  (  0.7% of F)
  Split-RI-J                ....       0.238 sec  (  9.4% of F)
  Chain of spheres X        ....       1.654 sec  ( 65.1% of F)
  XC integration            ....       0.696 sec  ( 27.4% of F)
    Basis function eval.    ....       0.158 sec  ( 22.7% of XC)
    Density eval.           ....       0.057 sec  (  8.3% of XC)
    XC-Functional eval.     ....       0.022 sec  (  3.2% of XC)
    XC-Potential eval.      ....       0.067 sec  (  9.6% of XC)
Diagonalization             ....       0.000 sec  (  0.0%)
Density matrix formation    ....       0.049 sec  (  1.4%)
Total Energy calculation    ....       0.036 sec  (  1.1%)
Population analysis         ....       0.020 sec  (  0.6%)
Orbital Transformation      ....       0.021 sec  (  0.6%)
Orbital Orthonormalization  ....       0.000 sec  (  0.0%)
DIIS solution               ....       0.105 sec  (  3.1%)
SOSCF solution              ....       0.073 sec  (  2.2%)
Finished LeanSCF after   3.4 sec

Maximum memory used throughout the entire LEANSCF-calculation: 10.7 MB

-------------------------   --------------------
FINAL SINGLE POINT ENERGY      -420.462766801904
-------------------------   --------------------



           ************************************************************
           *        Program running with 8 parallel MPI-processes     *
           *              working on a common directory               *
           ************************************************************
------------------------------------------------------------------------------
                         ORCA SCF GRADIENT CALCULATION
------------------------------------------------------------------------------

Nuc. rep. gradient        (SHARK) ... done (  0.0 sec)
HCore & Overlap gradient  (SHARK) ... done (  0.0 sec)
Split-RIJ-J gradient      (SHARK) ... done (  0.1 sec)
done (  1.1 sec)
XC gradient                       ... done (  0.3 sec)

------------------
CARTESIAN GRADIENT
------------------

   1   C   :   -0.004610278    0.000000022   -0.010545268
   2   O   :    0.042683402   -0.000000018    0.022098491
   3   O   :   -0.038334371    0.000000072    0.009302506
   4   H   :   -0.028651639    0.000000030   -0.008309470
   5   C   :    0.021479359   -0.000000212   -0.015721127
   6   C   :    0.011424709   -0.000000036   -0.003123547
   7   C   :    0.001337902    0.000000069   -0.002780665
   8   C   :    0.003067151    0.000000067    0.000603923
   9   C   :   -0.003244169    0.000000031    0.000339815
  10   C   :   -0.000797701   -0.000000018    0.011407274
  11   H   :   -0.001558968    0.000000015    0.003543860
  12   H   :   -0.002319049    0.000000008    0.001058418
  13   H   :   -0.001865796    0.000000007   -0.001124379
  14   H   :   -0.000677925   -0.000000031   -0.002754101
  15   H   :    0.002067376   -0.000000004   -0.003995732

Difference to translation invariance:
           :    0.0000000000   -0.0000000000    0.0000000000

Difference to rotation invariance:
           :   -0.0000000464    0.0001022433   -0.0000002303

Norm of the Cartesian gradient     ...    0.0771538011
RMS gradient                       ...    0.0115014096
MAX gradient                       ...    0.0426834016

-------
TIMINGS
-------

Total SCF gradient time     ....        1.479 sec

Densities                   ....       0.000 sec  (  0.0%)
One electron gradient       ....       0.006 sec  (  0.4%)
RI-J Coulomb gradient       ....       0.086 sec  (  5.8%)
COSX gradient               ....       1.081 sec  ( 73.1%)
XC gradient                 ....       0.306 sec  ( 20.7%)

Maximum memory used throughout the entire SCFGRAD-calculation: 13.1 MB
------------------------------------------------------------------------------
                         ORCA GEOMETRY RELAXATION STEP
------------------------------------------------------------------------------

Reading the OPT-File                    .... done
Getting information on internals        .... done
Copying old internal coords+grads       .... done
Making the new internal coordinates     .... (2022 redundants) done
Validating the new internal coordinates .... (2022 redundants) done
Calculating the B-matrix                .... done
Calculating the G,G- and P matrices     .... done
Transforming gradient to internals      .... done
Projecting the internal gradient        .... done
Number of atoms                         ....  15
Number of internal coordinates          ....  67
Current Energy                          ....  -420.462766802 Eh
Current gradient norm                   ....     0.077153801 Eh/bohr
Maximum allowed component of the step   ....  0.300
Current trust radius                    ....  0.300
Evaluating the initial hessian          ....  (Almloef) done
Projecting the Hessian                  .... done
Forming the augmented Hessian           .... done
Diagonalizing the augmented Hessian     .... done
Last element of RFO vector              ....  0.991741308
Lowest eigenvalues of augmented Hessian:
 -0.008593322  0.017111220  0.018410237  0.021008270  0.022583159
Length of the computed step             ....  0.129322382
The final length of the internal step   ....  0.129322382
Converting the step to Cartesian space:
 Initial RMS(Int)=    0.0157992436
Transforming coordinates:
 Iter   0:  RMS(Cart)=    0.0330861653 RMS(Int)=    2.0309756732
 Iter   5:  RMS(Cart)=    0.0000000078 RMS(Int)=    0.0000000056
done
Storing new coordinates                 .... done

                                .--------------------.
          ----------------------|Geometry convergence|-------------------------
          Item                value                   Tolerance       Converged
          ---------------------------------------------------------------------
          RMS gradient        0.0085255692            0.0001000000      NO
          MAX gradient        0.0378508431            0.0003000000      NO
          RMS step            0.0157992436            0.0020000000      NO
          MAX step            0.0724883941            0.0040000000      NO
          -------------------------------------------------------------------------
          ........................................................
          Max(Bonds)      0.0288      Max(Angles)    4.15
          Max(Dihed)        0.00      Max(Improp)    0.00
          ---------------------------------------------------------------------

The optimization has not yet converged - more geometry cycles are needed


    ---------------------------------------------------------------------------
                         Redundant Internal Coordinates
                            (Angstroem and degrees)

        Definition                    Value    dE/dq     Step     New-Value
    ----------------------------------------------------------------------------
     1. B(O   1,C   0)                1.4000  0.013792 -0.0133    1.3867   
     2. B(O   2,C   0)                1.2200 -0.037851  0.0190    1.2390   
     3. B(H   3,O   1)                0.9500 -0.029784  0.0288    0.9788   
     4. B(C   4,C   0)                1.4500 -0.018767  0.0195    1.4695   
     5. B(C   5,C   4)                1.4000 -0.007171  0.0063    1.4063   
     6. B(C   6,C   5)                1.4000  0.002178 -0.0019    1.3981   
     7. B(C   7,C   6)                1.4000 -0.000708  0.0005    1.4005   
     8. B(C   8,C   7)                1.4000 -0.002477  0.0020    1.4020   
     9. B(C   9,C   8)                1.4000  0.003356 -0.0029    1.3971   
    10. B(C   9,C   4)                1.4000 -0.003767  0.0033    1.4033   
    11. B(H  10,C   5)                1.0890  0.003543 -0.0051    1.0839   
    12. B(H  11,C   6)                1.0890  0.002537 -0.0036    1.0854   
    13. B(H  12,C   7)                1.0890  0.002178 -0.0031    1.0859   
    14. B(H  13,C   8)                1.0890  0.002754 -0.0039    1.0851   
    15. B(H  14,C   9)                1.0890  0.003789 -0.0054    1.0836   
    16. A(O   2,C   0,C   4)          120.00 -0.028418    3.66    123.66   
    17. A(O   1,C   0,C   4)          120.00  0.031224   -4.15    115.85   
    18. A(O   1,C   0,O   2)          120.00 -0.002806    0.50    120.50   
    19. A(C   0,O   1,H   3)          109.47  0.003085   -0.47    109.00   
    20. A(C   0,C   4,C   5)          120.00 -0.005537    0.73    120.73   
    21. A(C   0,C   4,C   9)          120.00  0.004224   -0.59    119.41   
    22. A(C   5,C   4,C   9)          120.00  0.001313   -0.15    119.85   
    23. A(C   4,C   5,H  10)          120.00  0.001830   -0.30    119.70   
    24. A(C   4,C   5,C   6)          120.00 -0.000449    0.09    120.09   
    25. A(C   6,C   5,H  10)          120.00 -0.001381    0.21    120.21   
    26. A(C   5,C   6,H  11)          120.00 -0.000070    0.01    120.01   
    27. A(C   5,C   6,C   7)          120.00  0.000642   -0.10    119.90   
    28. A(C   7,C   6,H  11)          120.00 -0.000573    0.09    120.09   
    29. A(C   8,C   7,H  12)          120.00  0.000371   -0.03    119.97   
    30. A(C   6,C   7,H  12)          120.00  0.000459   -0.05    119.95   
    31. A(C   6,C   7,C   8)          120.00 -0.000830    0.08    120.08   
    32. A(C   7,C   8,C   9)          120.00 -0.001279    0.15    120.15   
    33. A(C   9,C   8,H  13)          120.00  0.001335   -0.19    119.81   
    34. A(C   7,C   8,H  13)          120.00 -0.000056    0.03    120.03   
    35. A(C   4,C   9,C   8)          120.00  0.000602   -0.08    119.92   
    36. A(C   8,C   9,H  14)          120.00 -0.002797    0.44    120.44   
    37. A(C   4,C   9,H  14)          120.00  0.002195   -0.36    119.64   
    38. D(H   3,O   1,C   0,O   2)      0.00 -0.000000    0.00      0.00   
    39. D(H   3,O   1,C   0,C   4)    180.00  0.000000   -0.00    180.00   
    40. D(C   5,C   4,C   0,O   2)    180.00  0.000000   -0.00    180.00   
    41. D(C   9,C   4,C   0,O   1)    180.00 -0.000000    0.00    180.00   
    42. D(C   5,C   4,C   0,O   1)      0.00  0.000000   -0.00     -0.00   
    43. D(C   9,C   4,C   0,O   2)      0.00  0.000000   -0.00     -0.00   
    44. D(C   6,C   5,C   4,C   0)    180.00 -0.000000    0.00    180.00   
    45. D(H  10,C   5,C   4,C   9)    180.00  0.000000   -0.00    180.00   
    46. D(H  10,C   5,C   4,C   0)      0.00 -0.000000    0.00      0.00   
    47. D(C   6,C   5,C   4,C   9)      0.00 -0.000000    0.00      0.00   
    48. D(H  11,C   6,C   5,C   4)    180.00  0.000000   -0.00    180.00   
    49. D(H  11,C   6,C   5,H  10)      0.00 -0.000000    0.00      0.00   
    50. D(C   7,C   6,C   5,H  10)    180.00 -0.000000    0.00    180.00   
    51. D(C   7,C   6,C   5,C   4)      0.00  0.000000   -0.00     -0.00   
    52. D(C   8,C   7,C   6,C   5)      0.00  0.000000   -0.00     -0.00   
    53. D(H  12,C   7,C   6,H  11)      0.00 -0.000000    0.00      0.00   
    54. D(H  12,C   7,C   6,C   5)    180.00 -0.000000    0.00    180.00   
    55. D(C   8,C   7,C   6,H  11)    180.00  0.000000   -0.00    180.00   
    56. D(H  13,C   8,C   7,H  12)      0.00 -0.000000    0.00      0.00   
    57. D(H  13,C   8,C   7,C   6)    180.00 -0.000000    0.00    180.00   
    58. D(C   9,C   8,C   7,H  12)    180.00 -0.000000    0.00    180.00   
    59. D(C   9,C   8,C   7,C   6)      0.00 -0.000000    0.00      0.00   
    60. D(H  14,C   9,C   8,H  13)      0.00  0.000000   -0.00     -0.00   
    61. D(H  14,C   9,C   8,C   7)    180.00  0.000000   -0.00    180.00   
    62. D(C   4,C   9,C   8,H  13)    180.00  0.000000   -0.00    180.00   
    63. D(C   4,C   9,C   8,C   7)      0.00  0.000000   -0.00     -0.00   
    64. D(H  14,C   9,C   4,C   5)    180.00 -0.000000    0.00    180.00   
    65. D(H  14,C   9,C   4,C   0)      0.00  0.000000   -0.00     -0.00   
    66. D(C   8,C   9,C   4,C   5)      0.00  0.000000   -0.00     -0.00   
    67. D(C   8,C   9,C   4,C   0)    180.00  0.000000   -0.00    180.00   
    ----------------------------------------------------------------------------

Geometry step timings:
Preparation and reading OPT file:      0.000 s ( 1.134 %)
Internal coordinates            :      0.000 s (16.209 %)
B/P matrices and projection     :      0.001 s (21.844 %)
Hessian update/contruction      :      0.000 s (11.050 %)
Making the step                 :      0.001 s (19.283 %)
Converting the step to Cartesian:      0.000 s ( 2.232 %)
Storing new data                :      0.000 s ( 8.233 %)
Checking convergence            :      0.000 s ( 7.062 %)
Final printing                  :      0.000 s (12.953 %)
Total time                      :      0.003 s

Time for energy+gradient        :      7.702 s
Time for complete geometry iter :      8.220 s

         *************************************************************
         *                GEOMETRY OPTIMIZATION CYCLE   2            *
         *************************************************************
---------------------------------
CARTESIAN COORDINATES (ANGSTROEM)
---------------------------------
  C      0.031692    0.000001   -0.017342
  O     -0.046976   -0.000000    1.367107
  O      1.133258   -0.000003   -0.584530
  H      0.858917   -0.000004    1.737691
  C     -1.252313    0.000003   -0.731977
  C     -2.468140    0.000002   -0.025213
  C     -3.682069   -0.000000   -0.718895
  C     -3.685911   -0.000001   -2.119424
  C     -2.474662    0.000000   -2.825522
  C     -1.260018    0.000002   -2.135297
  H     -2.459292    0.000002    1.058683
  H     -4.619689   -0.000001   -0.172177
  H     -4.628258   -0.000003   -2.658988
  H     -2.478555   -0.000001   -3.910576
  H     -0.321196    0.000002   -2.676373

----------------------------
CARTESIAN COORDINATES (A.U.)
----------------------------
  NO LB      ZA    FRAG     MASS         X           Y           Z
   0 C     6.0000    0    12.011    0.059889    0.000002   -0.032771
   1 O     8.0000    0    15.999   -0.088771   -0.000000    2.583458
   2 O     8.0000    0    15.999    2.141547   -0.000006   -1.104602
   3 H     1.0000    0     1.008    1.623117   -0.000007    3.283761
   4 C     6.0000    0    12.011   -2.366529    0.000005   -1.383237
   5 C     6.0000    0    12.011   -4.664108    0.000005   -0.047646
   6 C     6.0000    0    12.011   -6.958102   -0.000000   -1.358514
   7 C     6.0000    0    12.011   -6.965363   -0.000002   -4.005132
   8 C     6.0000    0    12.011   -4.676434    0.000000   -5.339463
   9 C     6.0000    0    12.011   -2.381090    0.000004   -4.035127
  10 H     1.0000    0     1.008   -4.647387    0.000005    2.000621
  11 H     1.0000    0     1.008   -8.729947   -0.000002   -0.325367
  12 H     1.0000    0     1.008   -8.746141   -0.000006   -5.024760
  13 H     1.0000    0     1.008   -4.683790   -0.000001   -7.389917
  14 H     1.0000    0     1.008   -0.606973    0.000004   -5.057612

--------------------------------
INTERNAL COORDINATES (ANGSTROEM)
--------------------------------
 C      0   0   0     0.000000000000     0.00000000     0.00000000
 O      1   0   0     1.386682105345     0.00000000     0.00000000
 O      1   2   0     1.239011675000   120.49579978     0.00000000
 H      2   1   3     0.978761041884   108.99642274     0.00000000
 C      1   2   3     1.469480355278   115.84671766   179.99983287
 C      5   1   2     1.406324884654   120.73153674     0.00000000
 C      6   5   1     1.398147917964   120.08528901   180.00020642
 C      7   6   5     1.400535077159   119.90233577     0.00000000
 C      8   7   6     1.402033407647   120.08285548     0.00000000
 C      9   8   7     1.397057797985   120.15243047     0.00000000
 H      6   5   1     1.083932351937   119.70185816     0.00000000
 H      7   6   5     1.085371846343   120.00878721   179.99996119
 H      8   7   6     1.085885493973   119.95154642   180.00000819
 H      9   8   7     1.085060703711   120.03450469   180.00002299
 H     10   9   8     1.083581922643   120.43614756   179.99993184

---------------------------
INTERNAL COORDINATES (A.U.)
---------------------------
 C      0   0   0     0.000000000000     0.00000000     0.00000000
 O      1   0   0     2.620449413912     0.00000000     0.00000000
 O      1   2   0     2.341392742482   120.49579978     0.00000000
 H      2   1   3     1.849590319712   108.99642274     0.00000000
 C      1   2   3     2.776915430653   115.84671766   179.99983287
 C      5   1   2     2.657568887314   120.73153674     0.00000000
 C      6   5   1     2.642116659663   120.08528901   180.00020642
 C      7   6   5     2.646627736781   119.90233577     0.00000000
 C      8   7   6     2.649459171062   120.08285548     0.00000000
 C      9   8   7     2.640056631450   120.15243047     0.00000000
 H      6   5   1     2.048335292859   119.70185816     0.00000000
 H      7   6   5     2.051055543058   120.00878721   179.99996119
 H      8   7   6     2.052026196407   119.95154642   180.00000819
 H      9   8   7     2.050467568694   120.03450469   180.00002299
 H     10   9   8     2.047673077463   120.43614756   179.99993184



           ************************************************************
           *        Program running with 8 parallel MPI-processes     *
           *              working on a common directory               *
           ************************************************************
------------------------------------------------------------------------------
                   ___                                                        
                  /   \      - P O W E R E D   B Y -                         
                 /     \                                                     
                 |  |  |   _    _      __       _____    __    __             
                 |  |  |  | |  | |    /  \     |  _  \  |  |  /  |          
                  \  \/   | |  | |   /    \    | | | |  |  | /  /          
                 / \  \   | |__| |  /  /\  \   | |_| |  |  |/  /          
                |  |  |   |  __  | /  /__\  \  |    /   |      \           
                |  |  |   | |  | | |   __   |  |    \   |  |\   \          
                \     /   | |  | | |  |  |  |  | |\  \  |  | \   \       
                 \___/    |_|  |_| |__|  |__|  |_| \__\ |__|  \__/        
                                                                              
                      - O R C A' S   B I G   F R I E N D -                    
                                      &                                       
                       - I N T E G R A L  F E E D E R -                       
                                                                              
 v1 FN, 2020, v2 2021, v3 2022-2024                                           
------------------------------------------------------------------------------


----------------------
SHARK INTEGRAL PACKAGE
----------------------

Number of atoms                             ...     15
Number of basis functions                   ...     93
Number of shells                            ...     57
Maximum angular momentum                    ...      1
Integral batch strategy                     ... SHARK/LIBINT Hybrid
RI-J (if used) integral strategy            ... SPLIT-RIJ (Revised 2003 algorithm where possible)
Printlevel                                  ...      1
Contraction scheme used                     ... SEGMENTED contraction
Prescreening option                         ... SCHWARTZ
   Thresh                                   ... 2.500e-11
   Tcut                                     ... 2.500e-12
   Tpresel                                  ... 2.500e-12 
Coulomb Range Separation                    ... NOT USED
Exchange Range Separation                   ... NOT USED
Multipole approximations                    ... NOT USED
Finite Nucleus Model                        ... NOT USED
CABS basis                                  ... NOT available
Auxiliary Coulomb fitting basis             ... AVAILABLE
   # of basis functions in Aux-J            ...    507
   # of shells in Aux-J                     ...    165
   Maximum angular momentum in Aux-J        ...      4
Auxiliary J/K fitting basis                 ... NOT available
Auxiliary Correlation fitting basis         ... NOT available
Auxiliary 'external' fitting basis          ... NOT available

Checking pre-screening integrals            ... done (  0.0 sec) Dimension = 57
   => SHARK Basis and OBASIS are compatible. Storing Pre-screening
Shell pair information
Shell pair cut-off parameter TPreSel        ...   2.5e-12
Total number of shell pairs                 ...      1653
Shell pairs after pre-screening             ...      1535
Total number of primitive shell pairs       ...     11532
Primitive shell pairs kept                  ...      6798
          la=0 lb=0:    697 shell pairs
          la=1 lb=0:    669 shell pairs
          la=1 lb=1:    169 shell pairs

Checking whether 4 symmetric matrices of dimension 93 fit in memory
:Max Core in MB      =   2048.00
 MB in use           =      5.32
 MB left             =   2042.68
 MB needed           =      0.13
 Data fit in memory  = YES
Calculating RI/J V-Matrix + Cholesky decomp.... done (  0.0 sec)
Calculating Nuclear repulsion               ... done (  0.0 sec) ENN=    402.378663294074 Eh

Diagonalization of the overlap matrix:
Smallest eigenvalue                        ... 6.518e-04
Time for diagonalization                   ...    0.001 sec
Threshold for overlap eigenvalues          ... 1.000e-07
Number of eigenvalues below threshold      ... 0
Time for construction of square roots      ...    0.000 sec
Total time needed                          ...    0.002 sec

-------------------
DFT GRID GENERATION
-------------------

General Integration Accuracy     IntAcc      ... 4.388
Radial Grid Type                 RadialGrid  ... OptM3 with GC (2021)
Angular Grid (max. ang.)         AngularGrid ... 4 (Lebedev-302)
Angular grid pruning method      GridPruning ... 4 (adaptive)
Weight generation scheme         WeightScheme... mBecke (2022)
Basis function cutoff            BFCut       ... 1.0000e-11
Integration weight cutoff        WCut        ... 1.0000e-14
Partially contracted basis set               ... off
Rotationally invariant grid construction     ... off
Angular grids for H and He will be reduced by one unit

Total number of grid points                  ...    73580
Total number of batches                      ...     1159
Average number of points per batch           ...       63
Average number of grid points per atom       ...     4905

--------------------
COSX GRID GENERATION
--------------------

GRIDX 1
-------
General Integration Accuracy     IntAcc      ... 3.816
Radial Grid Type                 RadialGrid  ... OptM3 with GC (2021)
Angular Grid (max. ang.)         AngularGrid ... 1 (Lebedev-50)
Angular grid pruning method      GridPruning ... 4 (adaptive)
Weight generation scheme         WeightScheme... mBecke (2022)
Basis function cutoff            BFCut       ... 1.0000e-11
Integration weight cutoff        WCut        ... 1.0000e-14
Partially contracted basis set               ... on
Rotationally invariant grid construction     ... off
Angular grids for H and He will be reduced by one unit

Total number of grid points                  ...     9394
Total number of batches                      ...       81
[...]

DFT components:
N(Alpha)           :       32.000022546153 electrons
N(Beta)            :       32.000022546153 electrons
N(Total)           :       64.000045092307 electrons
E(X)               :      -43.600043718895 Eh       
E(C)               :       -2.579129762658 Eh       
E(XC)              :      -46.179173481552 Eh       

---------------
SCF CONVERGENCE
---------------

  Last Energy change         ...   -8.5072e-10  Tolerance :   1.0000e-08
  Last MAX-Density change    ...    4.1654e-05  Tolerance :   1.0000e-07
  Last RMS-Density change    ...    1.0271e-05  Tolerance :   5.0000e-09
  Last DIIS Error            ...    2.7257e-04  Tolerance :   5.0000e-07
  Last Orbital Gradient      ...    1.8823e-05  Tolerance :   1.0000e-05
  Last Orbital Rotation      ...    2.1435e-05  Tolerance :   1.0000e-05


----------------
ORBITAL ENERGIES
----------------

  NO   OCC          E(Eh)            E(eV) 
   0   2.0000     -19.190962      -522.2126 
   1   2.0000     -19.142510      -520.8942 
   2   2.0000     -10.328913      -281.0640 
   3   2.0000     -10.209393      -277.8117 
   4   2.0000     -10.201665      -277.6014 
   5   2.0000     -10.199782      -277.5502 
   6   2.0000     -10.198906      -277.5263 
   7   2.0000     -10.197040      -277.4756 
   8   2.0000     -10.196864      -277.4708 
   9   2.0000      -1.109458       -30.1899 
  10   2.0000      -1.021039       -27.7839 
  11   2.0000      -0.869897       -23.6711 
  12   2.0000      -0.776885       -21.1401 
  13   2.0000      -0.758335       -20.6353 
  14   2.0000      -0.668049       -18.1785 
  15   2.0000      -0.619948       -16.8696 
  16   2.0000      -0.591346       -16.0913 
  17   2.0000      -0.538976       -14.6663 
  18   2.0000      -0.494427       -13.4540 
  19   2.0000      -0.467587       -12.7237 
  20   2.0000      -0.456725       -12.4281 
  21   2.0000      -0.446806       -12.1582 
  22   2.0000      -0.444811       -12.1039 
  23   2.0000      -0.433719       -11.8021 
  24   2.0000      -0.391178       -10.6445 
  25   2.0000      -0.371096       -10.0980 
  26   2.0000      -0.365921        -9.9572 
  27   2.0000      -0.351860        -9.5746 
  28   2.0000      -0.315289        -8.5794 
  29   2.0000      -0.276940        -7.5359 
  30   2.0000      -0.263136        -7.1603 
  31   2.0000      -0.261147        -7.1062 
  32   0.0000      -0.053741        -1.4624 
  33   0.0000      -0.007449        -0.2027 
  34   0.0000       0.050093         1.3631 
  35   0.0000       0.067535         1.8377 
  36   0.0000       0.098135         2.6704 
  37   0.0000       0.141653         3.8546 
  38   0.0000       0.156661         4.2630 
  39   0.0000       0.165239         4.4964 
  40   0.0000       0.181760         4.9460 
  41   0.0000       0.190279         5.1778 
  42   0.0000       0.225953         6.1485 
*Only the first 10 virtual orbitals were printed.

                    ********************************
                    * MULLIKEN POPULATION ANALYSIS *
                    ********************************

-----------------------
MULLIKEN ATOMIC CHARGES
-----------------------
   0 C :    0.415737
   1 O :   -0.567498
   2 O :   -0.413164
   3 H :    0.388432
   4 C :    0.047767
   5 C :   -0.111839
   6 C :   -0.137880
   7 C :   -0.105471
   8 C :   -0.137523
   9 C :   -0.121896
  10 H :    0.168349
  11 H :    0.134744
  12 H :    0.135328
  13 H :    0.136094
  14 H :    0.168820
Sum of atomic charges:   -0.0000000

--------------------------------
MULLIKEN REDUCED ORBITAL CHARGES
--------------------------------
  0 C s       :     2.987831  s :     2.987831
      pz      :     0.772319  p :     2.596431
      px      :     0.969135
      py      :     0.854977

  1 O s       :     3.910024  s :     3.910024
      pz      :     1.338337  p :     4.657475
      px      :     1.501694
      py      :     1.817444

  2 O s       :     3.942069  s :     3.942069
      pz      :     1.660269  p :     4.471096
      px      :     1.393703
      py      :     1.417123

  3 H s       :     0.611568  s :     0.611568

  4 C s       :     3.168006  s :     3.168006
      pz      :     0.876390  p :     2.784227
      px      :     0.863415
      py      :     1.044421

  5 C s       :     3.207220  s :     3.207220
      pz      :     1.020155  p :     2.904619
      px      :     0.932381
      py      :     0.952083

  6 C s       :     3.207950  s :     3.207950
      pz      :     0.929872  p :     2.929930
      px      :     1.000083
      py      :     0.999975

  7 C s       :     3.204356  s :     3.204356
      pz      :     0.946362  p :     2.901115
      px      :     0.987240
      py      :     0.967513

  8 C s       :     3.207363  s :     3.207363
      pz      :     1.018191  p :     2.930160
      px      :     0.912989
      py      :     0.998980

  9 C s       :     3.213327  s :     3.213327
      pz      :     0.964523  p :     2.908569
      px      :     0.996563
      py      :     0.947484

 10 H s       :     0.831651  s :     0.831651

 11 H s       :     0.865256  s :     0.865256

 12 H s       :     0.864672  s :     0.864672

 13 H s       :     0.863906  s :     0.863906

 14 H s       :     0.831180  s :     0.831180



                     *******************************
                     * LOEWDIN POPULATION ANALYSIS *
                     *******************************

----------------------
LOEWDIN ATOMIC CHARGES
----------------------
   0 C :    0.248009
   1 O :   -0.342625
   2 O :   -0.295747
   3 H :    0.306516
   4 C :   -0.074134
   5 C :   -0.082841
   6 C :   -0.114662
   7 C :   -0.093436
   8 C :   -0.113733
   9 C :   -0.078686
  10 H :    0.137835
  11 H :    0.121397
  12 H :    0.121344
  13 H :    0.122098
  14 H :    0.138665

-------------------------------
LOEWDIN REDUCED ORBITAL CHARGES
-------------------------------
  0 C s       :     2.904518  s :     2.904518
      pz      :     0.924869  p :     2.847472
      px      :     1.075524
      py      :     0.847080

  1 O s       :     3.591049  s :     3.591049
      pz      :     1.389433  p :     4.751577
      px      :     1.548015
      py      :     1.814129

  2 O s       :     3.640195  s :     3.640195
      pz      :     1.733546  p :     4.655552
      px      :     1.495085
      py      :     1.426920

  3 H s       :     0.693484  s :     0.693484

  4 C s       :     2.914349  s :     2.914349
      pz      :     1.080371  p :     3.159786
      px      :     1.046035
      py      :     1.033380

  5 C s       :     2.943984  s :     2.943984
      pz      :     1.110286  p :     3.138857
      px      :     1.069254
      py      :     0.959318

  6 C s       :     2.943099  s :     2.943099
      pz      :     1.081063  p :     3.171563
      px      :     1.091253
      py      :     0.999247

  7 C s       :     2.947923  s :     2.947923
      pz      :     1.085819  p :     3.145512
      px      :     1.092946
      py      :     0.966747

  8 C s       :     2.942640  s :     2.942640
      pz      :     1.095626  p :     3.171093
      px      :     1.077118
      py      :     0.998349

  9 C s       :     2.944545  s :     2.944545
      pz      :     1.074585  p :     3.134140
      px      :     1.104725
      py      :     0.954831

 10 H s       :     0.862165  s :     0.862165

 11 H s       :     0.878603  s :     0.878603

 12 H s       :     0.878656  s :     0.878656

 13 H s       :     0.877902  s :     0.877902

 14 H s       :     0.861335  s :     0.861335



                      *****************************
                      * MAYER POPULATION ANALYSIS *
                      *****************************

  NA   - Mulliken gross atomic population
  ZA   - Total nuclear charge
  QA   - Mulliken gross atomic charge
  VA   - Mayer's total valence
  BVA  - Mayer's bonded valence
  FA   - Mayer's free valence

  ATOM       NA         ZA         QA         VA         BVA        FA
  0 C      5.5843     6.0000     0.4157     3.8727     3.8727     0.0000
  1 O      8.5675     8.0000    -0.5675     1.8196     1.8196    -0.0000
  2 O      8.4132     8.0000    -0.4132     2.0335     2.0335    -0.0000
  3 H      0.6116     1.0000     0.3884     0.8328     0.8328     0.0000
  4 C      5.9522     6.0000     0.0478     3.8021     3.8021     0.0000
  5 C      6.1118     6.0000    -0.1118     3.8610     3.8610     0.0000
  6 C      6.1379     6.0000    -0.1379     3.8848     3.8848    -0.0000
  7 C      6.1055     6.0000    -0.1055     3.8847     3.8847    -0.0000
  8 C      6.1375     6.0000    -0.1375     3.8833     3.8833     0.0000
  9 C      6.1219     6.0000    -0.1219     3.8733     3.8733     0.0000
 10 H      0.8317     1.0000     0.1683     0.9402     0.9402     0.0000
 11 H      0.8653     1.0000     0.1347     0.9427     0.9427    -0.0000
 12 H      0.8647     1.0000     0.1353     0.9415     0.9415    -0.0000
 13 H      0.8639     1.0000     0.1361     0.9423     0.9423    -0.0000
 14 H      0.8312     1.0000     0.1688     0.9421     0.9421    -0.0000

  Mayer bond orders larger than 0.100000
B(  0-C ,  1-O ) :   0.9828 B(  0-C ,  2-O ) :   1.8673 B(  0-C ,  4-C ) :   0.9486 
B(  1-O ,  3-H ) :   0.7761 B(  4-C ,  5-C ) :   1.3898 B(  4-C ,  9-C ) :   1.3899 
B(  5-C ,  6-C ) :   1.4272 B(  5-C , 10-H ) :   0.9187 B(  6-C ,  7-C ) :   1.4347 
B(  6-C , 11-H ) :   0.9322 B(  7-C ,  8-C ) :   1.4298 B(  7-C , 12-H ) :   0.9335 
B(  8-C ,  9-C ) :   1.4316 B(  8-C , 13-H ) :   0.9318 B(  9-C , 14-H ) :   0.9183 


-------
TIMINGS
-------

Total SCF time: 0 days 0 hours 0 min 1 sec 

Total time                  ....       1.738 sec
Sum of individual times     ....       1.512 sec  ( 87.0%)

SCF preparation             ....       0.246 sec  ( 14.1%)
Fock matrix formation       ....       1.142 sec  ( 65.7%)
  Startup                   ....       0.009 sec  (  0.8% of F)
  Split-RI-J                ....       0.097 sec  (  8.5% of F)
  Chain of spheres X        ....       0.919 sec  ( 80.4% of F)
  XC integration            ....       0.260 sec  ( 22.8% of F)
    XC Preparation          ....       0.000 sec  (  0.0% of XC)
    Basis function eval.    ....       0.060 sec  ( 23.2% of XC)
    Density eval.           ....       0.022 sec  (  8.5% of XC)
    XC-Functional eval.     ....       0.009 sec  (  3.4% of XC)
    XC-Potential eval.      ....       0.023 sec  (  8.8% of XC)
Diagonalization             ....       0.000 sec  (  0.0%)
Density matrix formation    ....       0.012 sec  (  0.7%)
Total Energy calculation    ....       0.010 sec  (  0.6%)
Population analysis         ....       0.023 sec  (  1.3%)
Orbital Transformation      ....       0.008 sec  (  0.4%)
Orbital Orthonormalization  ....       0.000 sec  (  0.0%)
DIIS solution               ....       0.018 sec  (  1.0%)
SOSCF solution              ....       0.054 sec  (  3.1%)
Finished LeanSCF after   1.8 sec

Maximum memory used throughout the entire LEANSCF-calculation: 10.9 MB

-------------------------   --------------------
FINAL SINGLE POINT ENERGY      -420.468554898798
-------------------------   --------------------

                                *** OPTIMIZATION RUN DONE ***



           ************************************************************
           *        Program running with 8 parallel MPI-processes     *
           *              working on a common directory               *
           ************************************************************

------------------------------------------------------------------------------
                              ORCA PROPERTY CALCULATIONS
------------------------------------------------------------------------------

GBWName                                 ... opt.gbw
Number of atoms                         ...     15
Number of basis functions               ...     93
Max core memory                         ...   2048 MB

Electric properties:
Dipole moment                           ... YES
Quadrupole moment                       ...  NO
Static polarizability (Dipole/Dipole)   ...  NO
Static polarizability (Dipole/Quad.)    ...  NO
Static polarizability (Quad./Quad.)     ...  NO
Static polarizability (Velocity)        ...  NO
Static hyperpolarizability              ...  NO

Atomic electric properties:
Dipole moment                           ...  NO
Quadrupole moment                       ...  NO
Static polarizability                   ...  NO

Choice of electric origin               ... Center of mass
Position of electric origin             ...    -2.690052     0.000007    -1.510105

General magnetic properties:
Magnetizability                         ...  NO

EPR properties:
g-Tensor (aka g-matrix)                 ...  NO
Zero-Field splitting spin-orbit         ...  NO
Zero-field splitting spin-spin          ...  NO
Hyperfine couplings                     ...  NO (   0 nuclei)
Quadrupole couplings                    ...  NO (   0 nuclei)
Contact density                         ...  NO (   0 nuclei)

NMR properties:
Chemical shifts                         ...  NO (   0 nuclei)
Spin-rotation constants                 ...  NO (   0 nuclei)
Spin-spin couplings                     ...  NO (   0 nuclei,    0 pairs)

Choice of magnetic origin               ... GIAO
Position of magnetic origin             ...     0.000000     0.000000     0.000000

Properties with geometric perturbations:
SCF Hessian                             ...  NO
IR spectrum                             ...  NO
VCD spectrum                            ...  NO
X-ray spectroscopy properties:
SCF XES/XAS/RIXS spectra                ...  NO

SCF SOC stabilization energy            ...  NO
Diagonal Born-Oppenheimer correction    ...  NO

-------------
DIPOLE MOMENT
-------------

Method             : SCF
Type of density    : Electron Density
Multiplicity       :   1
Irrep              :   0
Energy             :  -420.4685548987984021 Eh
Basis              : AO
                                X                 Y                 Z
Electronic contribution:      3.931448671       0.000073480       1.785225580
Nuclear contribution   :     -4.746493335      -0.000069322      -1.650565467
                        -----------------------------------------
Total Dipole Moment    :     -0.815044665       0.000004157       0.134660113
                        -----------------------------------------
Magnitude (a.u.)       :      0.826093912
Magnitude (Debye)      :      2.099763853



--------------------
Rotational spectrum 
--------------------
 
Rotational constants in cm-1:             0.127111             0.040541             0.030738 
Rotational constants in MHz :          3810.678436          1215.389842           921.487653 

Dipole components along the rotational axes: 
x,y,z [a.u.] :    -0.630474     0.533792     0.000004 
x,y,z [Debye]:    -1.602537     1.356791     0.000011 

 

Dipole moment calculation done in   0.0 sec 

Maximum memory used throughout the entire PROP-calculation: 5.6 MB

--------------------------------
SUGGESTED CITATIONS FOR THIS RUN
--------------------------------

Below you find a list of papers that are relevant to this ORCA run
We neither can nor want to force you to cite these papers, but we appreciate if you do
You receive ORCA, which is the product of decades of hard work by many enthusiastic individuals, for free
The only thing we kindly ask in return is that you cite our papers,
We deeply appreciate it, if you show your appreciation for ORCA by not just citing the generic ORCA reference.

Please note that relegating all ORCA citations to the supporting information does *not* help us.
SI sections are not indexed - citations you put there will not count into any citation statistics
But we need these citations in order to attract the funding resources that allow us to do what we are doing

Therefore, if you are a happy ORCA user, please consider citing a few of the papers listed below in the main body of your paper

In addition to the list printed below, the program has created the file opt.bibtex that contains the list in bibtex format
You can import this file easily into all common literature databanks and citation aid programs


List of essential papers. We consider these as the minimum necessary citations

  1. Neese, F.
     Software update: the ORCA program system, version 6.0
     WIRES Comput. Molec. Sci. 2025 15(1), e70019
     doi.org/10.1002/wcms.7019

List of papers to cite with high priority. The work reported in these papers was absolutely
necessary for this run to complete.
Our perspective: the developers of density functionals and basis sets usually get cited in chemistry papers
Good! But without the algorithms to do something with them, the functionals or basis sets would not do anything.
Hence, in our opinion, the algorithm design and method developments papers are equally worthy of getting cited

  1. Neese, F.
     An improvement of the resolution of the identity approximation for the formation of the Coulomb matrix
     J. Comp. Chem. 2003 24(14), 1740-1747
     doi.org/10.1002/jcc.10318
  2. Neese, F.; Wennmohs, F.; Hansen, A.; Becker, U.
     Efficient, approximate and parallel Hartree-Fock and hybrid DFT calculations. A 'chain-of-spheres' algorithm for the Hartree-Fock exchange
     Chem. Phys. 2009 356(1-3), 98-109
     doi.org/10.1016/j.chemphys.2008.10.036
  3. Helmich-Paris, B.; de Souza, B.; Neese, F.; Izsák, R.
     An improved chain of spheres for exchange algorithm
     J. Chem. Phys. 2021 155(10), 104109
     doi.org/10.1063/5.0058766
  4. Neese, F.
     The SHARK Integral Generation and Digestion System
     J. Comp. Chem. 2022 44(3), 381
     doi.org/10.1002/jcc.26942

List of suggested additional citations. These are papers that are important in the 'surrounding' of 
of this run, or papers that preceded the highly important papers. If you like your results we are grateful for a citation.

  1. Izsak, R.; Neese, F.
     An overlap fitted chain of spheres exchange method
     J. Chem. Phys. 2011 135 , 144105
     doi.org/10.1063/1.3646921
  2. Izsak, R.; Hansen, A.; Neese, F.
     The resolution of identity and chain of spheres approximations for the LPNO-CCSD singles Fock term
     Molec. Phys. 2012 110 , 2413-2417
     doi.org/10.1080/00268976.2012.687466
  3. Neese, F.
     The ORCA program system
     WIRES Comput. Molec. Sci. 2012 2(1), 73-78
     doi.org/10.1002/wcms.81
  4. Izsak, R.; Neese, F.; Klopper, W.
     Robust fitting techniques in the chain of spheres approximation to the Fock exchange: The role of the complementary space
     J. Chem. Phys. 2013 139 , 
     doi.org/10.1063/1.4819264
  5. Neese, F.
     Software update: the ORCA program system, version 4.0
     WIRES Comput. Molec. Sci. 2018 8(1), 1-6
     doi.org/10.1002/wcms.1327
  6. Neese, F.; Wennmohs, F.; Becker, U.; Riplinger, C.
     The ORCA quantum chemistry program package
     J. Chem. Phys. 2020 152(22), 224108
     doi.org/10.1063/5.0004608
  7. Neese, F.
     Software update: The ORCA program system—Version 5.0
     WIRES Comput. Molec. Sci. 2022 12(1), e1606
     doi.org/10.1002/wcms.1606

List of optional additional citations

  1. Neese, F.
     Approximate second-order SCF convergence for spin unrestricted wavefunctions
     Chem. Phys. Lett. 2000 325(1-3), 93-98
     doi.org/10.1016/s0009-2614(00)00662-x

Timings for individual modules:

Sum of individual times          ...       38.052 sec (=   0.634 min)
Startup calculation              ...        6.448 sec (=   0.107 min)  16.9 %
SCF iterations                   ...       21.182 sec (=   0.353 min)  55.7 %
Property calculations            ...        0.544 sec (=   0.009 min)   1.4 %
SCF Gradient evaluation          ...        9.855 sec (=   0.164 min)  25.9 %
Geometry relaxation              ...        0.023 sec (=   0.000 min)   0.1 %
                             ****ORCA TERMINATED NORMALLY****
TOTAL RUN TIME: 0 days 0 hours 0 minutes 41 seconds 97 msec
