[Molden Format]
[Title]
 Molden file created by orca_2mkl for BaseName=freq

[Atoms] AU
C    1   6          0.0908081948         0.0000770406        -0.0701227339 
O    2   8         -0.1177615503        -0.0000269657         2.5366248558 
O    3   8          2.1871244949        -0.0000175856        -1.1146235940 
H    4   1          1.5758288615        -0.0000965580         3.2904505158 
C    5   6         -2.3752550766         0.0000404642        -1.3730933990 
C    6   6         -4.6704461604         0.0000302659        -0.0346912026 
C    7   6         -6.9572376552         0.0000023637        -1.3541477457 
C    8   6         -6.9645731037        -0.0000187919        -4.0023006698 
C    9   6         -4.6773633221        -0.0000105609        -5.3384565784 
C   10   6         -2.3869875650         0.0000194692        -4.0301820449 
H   11   1         -4.6402637690         0.0000481309         2.0118080766 
H   12   1         -8.7295454395        -0.0000046362        -0.3221478591 
H   13   1         -8.7454872521        -0.0000424196        -5.0211954833 
H   14   1         -4.6833845581        -0.0000273550        -7.3891401956 
H   15   1         -0.5955375522         0.0000271384        -5.0250891257 
[GTO]
  1 0
s   6 1.0 
     3047.5249000000         0.5363343823
      457.3695100000         0.9894506076
      103.9486900000         1.5972822308
       29.2101550000         2.0791870615
        9.2866630000         1.7741742532
        3.1639270000         0.6125798260
s   3 1.0 
        7.8682724000        -0.3995563516
        1.8812885000        -0.1841552393
        0.5442493000         0.5163903794
p   3 1.0 
        7.8682724000         1.2960827175
        1.8812885000         0.9937536282
        0.5442493000         0.4959527138
s   1 1.0 
        0.1687144000         0.1876178721
p   1 1.0 
        0.1687144000         0.1541275509

  2 0
s   6 1.0 
     5484.6717000000         0.8317352088
      825.2349500000         1.5308074829
      188.0469600000         2.4771490916
       52.9645000000         3.2562802462
       16.8975700000         2.7928936336
        5.7996353000         0.9549376963
s   3 1.0 
       15.5396160000        -0.6179336976
        3.5999336000        -0.2757210088
        1.0137618000         0.8142076427
p   3 1.0 
       15.5396160000         3.1169455889
        3.5999336000         2.4014372483
        1.0137618000         1.0543605133
s   1 1.0 
        0.2700058000         0.2669561389
p   1 1.0 
        0.2700058000         0.2774319373

  3 0
s   6 1.0 
     5484.6717000000         0.8317352088
      825.2349500000         1.5308074829
      188.0469600000         2.4771490916
       52.9645000000         3.2562802462
       16.8975700000         2.7928936336
        5.7996353000         0.9549376963
s   3 1.0 
       15.5396160000        -0.6179336976
        3.5999336000        -0.2757210088
        1.0137618000         0.8142076427
p   3 1.0 
       15.5396160000         3.1169455889
        3.5999336000         2.4014372483
        1.0137618000         1.0543605133
s   1 1.0 
        0.2700058000         0.2669561389
p   1 1.0 
        0.2700058000         0.2774319373

  4 0
s   3 1.0 
       18.7311370000         0.2149354183
        2.8253937000         0.3645711272
        0.6401217000         0.4150514277
s   1 1.0 
        0.1612778000         0.1813806839

  5 0
s   6 1.0 
     3047.5249000000         0.5363343823
      457.3695100000         0.9894506076
      103.9486900000         1.5972822308
       29.2101550000         2.0791870615
        9.2866630000         1.7741742532
        3.1639270000         0.6125798260
s   3 1.0 
        7.8682724000        -0.3995563516
        1.8812885000        -0.1841552393
        0.5442493000         0.5163903794
p   3 1.0 
        7.8682724000         1.2960827175
        1.8812885000         0.9937536282
        0.5442493000         0.4959527138
s   1 1.0 
        0.1687144000         0.1876178721
p   1 1.0 
        0.1687144000         0.1541275509

  6 0
s   6 1.0 
     3047.5249000000         0.5363343823
      457.3695100000         0.9894506076
      103.9486900000         1.5972822308
       29.2101550000         2.0791870615
        9.2866630000         1.7741742532
        3.1639270000         0.6125798260
s   3 1.0 
        7.8682724000        -0.3995563516
        1.8812885000        -0.1841552393
        0.5442493000         0.5163903794
p   3 1.0 
        7.8682724000         1.2960827175
        1.8812885000         0.9937536282
        0.5442493000         0.4959527138
s   1 1.0 
        0.1687144000         0.1876178721
p   1 1.0 
        0.1687144000         0.1541275509

  7 0
s   6 1.0 
     3047.5249000000         0.5363343823
      457.3695100000         0.9894506076
      103.9486900000         1.5972822308
       29.2101550000         2.0791870615
        9.2866630000         1.7741742532
        3.1639270000         0.6125798260
s   3 1.0 
        7.8682724000        -0.3995563516
        1.8812885000        -0.1841552393
        0.5442493000         0.5163903794
p   3 1.0 
        7.8682724000         1.2960827175
        1.8812885000         0.9937536282
        0.5442493000         0.4959527138
s   1 1.0 
        0.1687144000         0.1876178721
p   1 1.0 
        0.1687144000         0.1541275509

  8 0
s   6 1.0 
     3047.5249000000         0.5363343823
      457.3695100000         0.9894506076
      103.9486900000         1.5972822308
       29.2101550000         2.0791870615
        9.2866630000         1.7741742532
        3.1639270000         0.6125798260
s   3 1.0 
        7.8682724000        -0.3995563516
        1.8812885000        -0.1841552393
        0.5442493000         0.5163903794
p   3 1.0 
        7.8682724000         1.2960827175
        1.8812885000         0.9937536282
        0.5442493000         0.4959527138
s   1 1.0 
        0.1687144000         0.1876178721
p   1 1.0 
        0.1687144000         0.1541275509

  9 0
s   6 1.0 
     3047.5249000000         0.5363343823
      457.3695100000         0.9894506076
      103.9486900000         1.5972822308
       29.2101550000         2.0791870615
        9.2866630000         1.7741742532
        3.1639270000         0.6125798260
s   3 1.0 
        7.8682724000        -0.3995563516
        1.8812885000        -0.1841552393
        0.5442493000         0.5163903794
p   3 1.0 
        7.8682724000         1.2960827175
        1.8812885000         0.9937536282
        0.5442493000         0.4959527138
s   1 1.0 
        0.1687144000         0.1876178721
p   1 1.0 
        0.1687144000         0.1541275509

 10 0
s   6 1.0 
     3047.5249000000         0.5363343823
      457.3695100000         0.9894506076
      103.9486900000         1.5972822308
       29.2101550000         2.0791870615
        9.2866630000         1.7741742532
        3.1639270000         0.6125798260
s   3 1.0 
        7.8682724000        -0.3995563516
        1.8812885000        -0.1841552393
        0.5442493000         0.5163903794
p   3 1.0 
        7.8682724000         1.2960827175
        1.8812885000         0.9937536282
        0.5442493000         0.4959527138
s   1 1.0 
        0.1687144000         0.1876178721
p   1 1.0 
        0.1687144000         0.1541275509

 11 0
s   3 1.0 
       18.7311370000         0.2149354183
        2.8253937000         0.3645711272
        0.6401217000         0.4150514277
s   1 1.0 
        0.1612778000         0.1813806839

 12 0
s   3 1.0 
       18.7311370000         0.2149354183
        2.8253937000         0.3645711272
        0.6401217000         0.4150514277
s   1 1.0 
        0.1612778000         0.1813806839

 13 0
s   3 1.0 
       18.7311370000         0.2149354183
        2.8253937000         0.3645711272
        0.6401217000         0.4150514277
s   1 1.0 
        0.1612778000         0.1813806839

 14 0
s   3 1.0 
       18.7311370000         0.2149354183
        2.8253937000         0.3645711272
        0.6401217000         0.4150514277
s   1 1.0 
        0.1612778000         0.1813806839

 15 0
s   3 1.0 
       18.7311370000         0.2149354183
        2.8253937000         0.3645711272
        0.6401217000         0.4150514277
s   1 1.0 
        0.1612778000         0.1813806839

[5D]
[7F]
[9G]
[MO]
 Sym=     1a
 Ene= -1.91909264483488E+01
 Spin= Alpha
 Occup= 2.000000
  1       0.000027000674
  2      -0.000133692573
  3      -0.000075370095
  4      -0.000000004371
  5       0.000137013833
  6       0.005837128527
  7      -0.002118633769
  8      -0.000000369693
  9       0.012392149835
 10       0.995145702718
 11       0.030025357472
 12       0.001583377205
 13       0.000000055537
 14      -0.001357503686
 15      -0.022230190830
 16      -0.002236309693
 17      -0.000000269916
 18       0.005602409065
 19      -0.000798585536
 20      -0.000697608207
 21       0.000162970528
 22      -0.000000036045
 23       0.000043058282
 24       0.003474882922
 25      -0.001673561998
 26       0.000000253596
 27      -0.001457003742
 28       0.000687671956
 29       0.001686747184
 30       0.000017599053
 31       0.000101062649
 32      -0.000291938235
 33      -0.000000017464
 34       0.000221191904
 35      -0.001559417388
 36       0.005211312954
 37       0.000000176251
 38      -0.007148538150
 39      -0.000027384197
 40      -0.000168741221
 41       0.000070924731
 42       0.000000021079
 43      -0.000040347218
 44       0.005167723519
 45       0.003737272242
 46      -0.000000089139
 47      -0.001604727504
 48      -0.000005371937
 49      -0.000071406777
 50      -0.000071597828
 51      -0.000000003269
 52      -0.000113177695
 53       0.000683449306
 54       0.000233076328
 55       0.000000050545
 56       0.001360229506
 57       0.000000980872
 58       0.000009687772
 59      -0.000031264565
 60       0.000000003176
 61       0.000077056438
 62       0.000025483488
 63      -0.000737868539
 64      -0.000000017065
 65       0.000115746425
 66      -0.000036699804
 67      -0.000305067940
 68       0.000052804728
 69       0.000000007280
 70      -0.000020393962
 71       0.003099361663
 72       0.000714988645
 73       0.000000000317
 74       0.001599404035
 75       0.000005221964
 76      -0.000111074493
 77      -0.000302269558
 78      -0.000000026094
 79      -0.000326986184
 80      -0.005663991737
 81       0.001924904515
 82       0.000000019644
 83      -0.000716990845
 84      -0.000179490608
 85       0.000478122012
 86      -0.000098707157
 87      -0.000152741692
 88      -0.000075667306
 89      -0.000166761867
 90       0.000014476230
 91       0.000404453961
 92      -0.000106405387
 93      -0.000060125282
 Sym=     1a
 Ene= -1.91425594132795E+01
 Spin= Alpha
 Occup= 2.000000
  1       0.000265444408
  2       0.000706873086
  3      -0.000111927270
  4       0.000000011118
  5       0.000043762371
  6       0.008134227967
  7       0.014266143477
  8      -0.000000470576
  9      -0.009432861323
 10       0.000741046820
 11      -0.000674858048
 12       0.000103913422
 13      -0.000000046389
 14       0.000154332485
 15       0.003985220536
 16      -0.001899889922
 17       0.000000306240
 18      -0.001493593473
 19       0.995196218485
 20       0.030584158218
 21      -0.002153398416
 22       0.000000131492
 23       0.001120281392
 24      -0.026844601766
 25       0.007267899402
 26      -0.000000444102
 27      -0.003337584074
 28       0.000143579356
 29       0.000205720474
 30       0.000014217007
 31       0.000052287053
 32       0.000101208616
 33      -0.000000026231
 34      -0.000440937581
 35       0.001440394133
 36      -0.003228872698
 37       0.000000292481
 38       0.010910329947
 39       0.000009778841
 40      -0.000102100126
 41      -0.000412505408
 42      -0.000000022041
 43      -0.000067556695
 44      -0.006277290541
 45      -0.001513903852
 46      -0.000000008605
 47       0.001777083048
 48      -0.000027809878
 49      -0.000235229787
 50       0.000010606676
 51       0.000000008367
 52       0.000080846369
 53       0.001756542398
 54       0.001177062985
 55      -0.000000011209
 56      -0.000707435484
 57      -0.000003943773
 58      -0.000034812595
 59       0.000045942224
 60       0.000000003415
 61      -0.000094102353
 62       0.000331780199
 63       0.000281369987
 64      -0.000000018125
 65      -0.000531343753
 66       0.000011582681
 67       0.000053238603
 68      -0.000162717910
 69      -0.000000003617
 70      -0.000016313419
 71      -0.001312261108
 72       0.000735690097
 73       0.000000038268
 74      -0.001281523094
 75      -0.000028177173
 76      -0.000116206077
 77       0.000142402036
 78       0.000000024344
 79       0.000200530708
 80       0.007276868938
 81      -0.001138018195
 82      -0.000000102218
 83       0.003847285432
 84       0.000019075295
 85      -0.000180420071
 86       0.000056010269
 87       0.000407490732
 88      -0.000024952939
 89      -0.000004073113
 90      -0.000087658406
 91      -0.000308042204
 92      -0.000072476742
 93       0.000650093640
 Sym=     1a
 Ene= -1.03289106391604E+01
 Spin= Alpha
 Occup= 2.000000
  1       0.995140875238
  2       0.034560433481
  3       0.000631697125
  4      -0.000000131543
  5       0.000149446002
  6      -0.019510947156
  7       0.010218161093
  8       0.000000137838
  9       0.002426791604
 10       0.000061117790
 11       0.000335651702
 12       0.000148293112
 13      -0.000000007449
 14       0.000378935927
 15      -0.000222828892
 16      -0.002116579317
 17      -0.000000065378
 18       0.000801179685
 19      -0.000070109158
 20       0.000398654030
 21       0.000544565864
 22       0.000000005508
 23      -0.000151289732
 24      -0.003823333149
 25       0.001593419023
 26      -0.000000257580
 27      -0.002442230169
 28       0.000577164822
 29       0.000385115180
 30       0.000771410837
 31      -0.001828475592
 32      -0.000748490579
 33      -0.000000016395
 34      -0.000591557387
 35       0.013153649061
 36       0.003380500720
 37       0.000000102880
 38       0.006012856606
 39      -0.000021761585
 40      -0.000079704593
 41      -0.000364298887
 42      -0.000000013346
 43      -0.000138450514
 44      -0.004796864288
 45       0.000123851151
 46       0.000000037240
 47       0.002501779805
 48      -0.000093489021
 49      -0.000497898746
 50      -0.000030369455
 51       0.000000002605
 52       0.000044586916
 53       0.004429665855
 54       0.002802493050
 55      -0.000000002101
 56      -0.001312253961
 57       0.000007066820
 58       0.000036151692
 59      -0.000045805398
 60      -0.000000000708
 61      -0.000049054957
 62      -0.002653521934
 63      -0.001354508748
 64      -0.000000016728
 65      -0.001346111392
 66      -0.000076826676
 67      -0.000424414437
 68      -0.000021271981
 69       0.000000005480
 70      -0.000009433532
 71       0.004537994686
 72       0.001540709044
 73       0.000000025697
 74       0.002378635198
 75      -0.000038223170
 76      -0.000230639287
 77      -0.000261132440
 78      -0.000000004636
 79      -0.000155729875
 80      -0.000776530939
 81       0.003125999553
 82       0.000000039185
 83       0.002034849665
 84      -0.000100144506
 85      -0.000712212911
 86       0.000105650373
 87       0.000962627012
 88      -0.000092071094
 89      -0.000344474675
 90       0.000025462132
 91       0.000705477524
 92      -0.000258062514
 93      -0.000475049788
 Sym=     1a
 Ene= -1.02093866483177E+01
 Spin= Alpha
 Occup= 2.000000
  1       0.000910543779
  2       0.001846409306
  3      -0.000881497891
  4      -0.000000007387
  5      -0.000395452572
  6      -0.009932234001
  7       0.004407596574
  8       0.000000101252
  9       0.002610892474
 10      -0.000003716029
 11      -0.000033555701
 12       0.000013824929
 13      -0.000000001008
 14      -0.000067648130
 15       0.000683097347
 16      -0.000145574050
 17      -0.000000004869
 18      -0.000073952574
 19      -0.000005111745
 20      -0.000022048897
 21      -0.000016920785
 22      -0.000000000746
 23       0.000071906294
 24       0.000683974850
 25      -0.000615403101
 26       0.000000001375
 27      -0.000336517373
 28      -0.000098493789
 29      -0.000341467440
 30      -0.994864176126
 31      -0.036774944873
 32      -0.000144788769
 33      -0.000000018835
 34      -0.000040669626
 35       0.040924205230
 36      -0.001331619266
 37      -0.000000008083
 38      -0.001213653984
 39      -0.021255586792
 40       0.001449472838
 41       0.000898375023
 42       0.000000003098
 43      -0.000573843415
 44      -0.012734789549
 45      -0.004477435036
 46      -0.000000004597
 47       0.004889055506
 48      -0.000582056089
 49      -0.000130898931
 50       0.000114901854
 51       0.000000002551
 52       0.000124924367
 53       0.003989611863
 54       0.002118918863
 55      -0.000000000206
 56      -0.002004767945
 57       0.001034256470
 58       0.000433980129
 59       0.000072130401
 60       0.000000001453
 61       0.000048539015
 62      -0.004787613588
 63      -0.002336947027
 64      -0.000000030156
 65      -0.001371036289
 66      -0.000545857991
 67      -0.000147240922
 68       0.000175830503
 69       0.000000002603
 70       0.000040114498
 71       0.004266088013
 72      -0.000517040034
 73       0.000000017041
 74       0.002968532953
 75      -0.019521841619
 76       0.001505874705
 77      -0.000064478936
 78       0.000000006543
 79       0.001041299785
 80      -0.013338891843
 81       0.002221646546
 82      -0.000000030449
 83      -0.006356610694
 84       0.000209068188
 85      -0.000762773030
 86       0.000093697941
 87       0.000485509667
 88      -0.000066387641
 89      -0.000679480759
 90       0.000093864248
 91       0.000510938306
 92       0.000189859650
 93      -0.000770007292
 Sym=     1a
 Ene= -1.02016692058415E+01
 Spin= Alpha
 Occup= 2.000000
  1      -0.000012221389
  2      -0.000124298158
  3      -0.000045034427
  4       0.000000001056
  5      -0.000034096550
  6       0.002747903752
  7      -0.001388026649
  8      -0.000000040715
  9      -0.000662988058
 10      -0.000000400364
 11      -0.000001043739
 12      -0.000021223634
 13      -0.000000010860
 14       0.000014470231
 15      -0.000061106566
 16       0.000141163569
 17       0.000000029441
 18      -0.000005824826
 19      -0.000001791594
 20      -0.000028100504
 21      -0.000009699949
 22      -0.000000002807
 23      -0.000023604549
 24       0.000114513949
 25       0.000090789109
 26       0.000000017545
 27       0.000169583511
 28      -0.000024097882
 29       0.000082685688
 30       0.000670206413
 31      -0.000418132890
 32       0.000237031434
 33       0.000000003460
 34       0.000129855289
 35       0.005233470708
 36      -0.005141285306
 37      -0.000000064190
 38      -0.002822232101
 39       0.006418523431
 40       0.000352807707
 41       0.000245799654
 42       0.000000004208
 43       0.000144419277
 44      -0.007737749277
 45       0.000148777417
 46       0.000000030690
 47       0.004633065190
 48       0.046276805189
 49      -0.000827678198
 50      -0.000074235945
 51       0.000000007206
 52       0.001041072707
 53       0.016583753247
 54       0.005643742570
 55      -0.000000009122
 56      -0.007155535049
 57       0.993142941895
 58       0.036185554549
 59       0.000421372652
 60       0.000000004306
 61       0.000236914444
 62      -0.038279865620
 63      -0.008959939056
 64      -0.000000115268
 65      -0.005098891646
 66       0.044441168812
 67      -0.000888535554
 68       0.000860067282
 69       0.000000002520
 70      -0.000591040385
 71       0.016608017161
 72      -0.003348139095
 73       0.000000041145
 74       0.008486382799
 75       0.004369877512
 76       0.000276535373
 77       0.000249790441
 78       0.000000003517
 79       0.000143343835
 80      -0.007571123025
 81       0.004043488146
 82       0.000000016424
 83      -0.002163819524
 84      -0.000144540703
 85      -0.000788623163
 86      -0.000016818153
 87       0.002017466145
 88      -0.001376213822
 89       0.001910887099
 90      -0.000014823390
 91       0.002011587707
 92      -0.000139926305
 93      -0.000796779469
 Sym=     1a
 Ene= -1.01997697489006E+01
 Spin= Alpha
 Occup= 2.000000
  1       0.000020574420
  2      -0.000310877868
  3      -0.000025154112
  4      -0.000000000032
  5      -0.000060557434
  6       0.003061451072
  7      -0.001734465562
  8       0.000000002207
  9      -0.000923426523
 10       0.000001517927
 11      -0.000015526400
 12      -0.000001827799
 13       0.000000001801
 14       0.000056945917
 15      -0.000081891562
 16       0.000242037616
 17      -0.000000004178
 18      -0.000142511179
 19      -0.000013336449
 20      -0.000238200395
 21       0.000018818614
 22      -0.000000003343
 23       0.000002862299
 24       0.000766669860
 25      -0.000260929068
 26       0.000000018396
 27       0.000128766065
 28      -0.000032916983
 29       0.000160657545
 30      -0.021382199565
 31      -0.003122397252
 32       0.001134129681
 33       0.000000008604
 34      -0.000478405153
 35       0.017216013116
 36      -0.011672121449
 37      -0.000000129143
 38      -0.000924846570
 39       0.991710602304
 40       0.036399904472
 41       0.000113858242
 42      -0.000000001462
 43      -0.000602927487
 44      -0.040275433453
 45      -0.000711749323
 46       0.000000073213
 47       0.011318237825
 48       0.080279151339
 49       0.000404786851
 50      -0.000897048932
 51      -0.000000011104
 52      -0.000415916329
 53       0.015524178442
 54       0.009051890879
 55       0.000000064797
 56      -0.001153662535
 57      -0.009883204292
 58      -0.000307837650
 59       0.000026130626
 60      -0.000000002414
 61      -0.000353669476
 62      -0.006312714045
 63      -0.003357818874
 64      -0.000000043100
 65      -0.001764189547
 66      -0.004264018435
 67      -0.000599363850
 68       0.000032326003
 69      -0.000000000616
 70      -0.000102806157
 71       0.006351255982
 72       0.000232991881
 73       0.000000031246
 74       0.003747901148
 75      -0.006408336569
 76      -0.000060500075
 77       0.000010992756
 78      -0.000000001832
 79      -0.000234800917
 80      -0.006846077294
 81       0.004281515661
 82       0.000000027805
 83      -0.001801076158
 84      -0.001404577494
 85       0.001705593574
 86      -0.000039413009
 87       0.002133022948
 88      -0.000073967383
 89      -0.000608540893
 90       0.000108920166
 91       0.000945347390
 92      -0.000109645481
 93      -0.000980791088
 Sym=     1a
 Ene= -1.01989140596001E+01
 Spin= Alpha
 Occup= 2.000000
  1      -0.000002129935
  2       0.000267902190
  3       0.000029916548
  4       0.000000001562
  5       0.000005327192
  6      -0.003271417913
  7       0.001401269763
  8       0.000000002775
  9       0.001506746250
 10       0.000013539137
 11       0.000235910642
 12      -0.000043217263
 13       0.000000008035
 14      -0.000050388185
 15      -0.000824835882
 16       0.000253025855
 17      -0.000000041016
 18       0.000524471075
 19      -0.000005401227
 20      -0.000065766808
 21      -0.000009019815
 22      -0.000000002957
 23       0.000034475772
 24       0.000396280748
 25      -0.000258592523
 26       0.000000014658
 27      -0.000343326732
 28      -0.000038157268
 29      -0.000290019314
 30       0.019882114998
 31       0.003083239133
 32      -0.000212624723
 33      -0.000000013010
 34      -0.001201185471
 35      -0.017318636404
 36       0.007384317332
 37       0.000000150722
 38       0.008791878984
 39      -0.006786788730
 40      -0.000424497936
 41       0.000206917270
 42       0.000000002888
 43      -0.000124069399
 44       0.007764156207
 45      -0.000249419538
 46      -0.000000048649
 47      -0.004894717765
 48       0.004817266201
 49       0.000649981808
 50       0.000078547256
 51      -0.000000000346
 52      -0.000095457427
 53      -0.006398673393
 54      -0.003389563954
 55      -0.000000008415
 56       0.001803673165
 57       0.009036977486
 58       0.000350012747
 59       0.000314296118
 60       0.000000001192
 61      -0.000202999775
 62       0.005931360635
 63       0.002927260138
 64       0.000000039101
 65       0.002028254007
 66      -0.109561788963
 67      -0.001496509981
 68       0.000816603848
 69       0.000000011893
 70       0.000545671228
 71      -0.014244163990
 72      -0.003566451160
 73      -0.000000096443
 74      -0.008007406341
 75      -0.988925357760
 76      -0.036223579896
 77       0.000414766627
 78      -0.000000001271
 79      -0.000437513796
 80       0.039207851103
 81      -0.009102214379
 82      -0.000000028705
 83       0.006141532028
 84       0.000116725489
 85       0.001029941978
 86      -0.000117950010
 87      -0.000979067152
 88       0.000068450554
 89       0.000541427442
 90       0.000082189903
 91      -0.002173813360
 92       0.001391317695
 93      -0.001703904047
 Sym=     1a
 Ene= -1.01970356418405E+01
 Spin= Alpha
 Occup= 2.000000
  1       0.000007631328
  2       0.000291502859
  3      -0.000000891974
  4      -0.000000000655
  5      -0.000000552312
  6       0.000132475960
  7       0.000976403045
  8       0.000000001665
  9      -0.000891543493
 10      -0.000002654261
 11       0.000023866519
 12      -0.000079983589
 13       0.000000000386
 14      -0.000044241972
 15       0.000411703056
 16       0.000322977672
 17       0.000000008065
 18       0.000015969985
 19       0.000006650640
 20       0.000099784816
 21       0.000016249723
 22       0.000000003289
 23       0.000005531272
 24      -0.000752378009
 25       0.000105799969
 26      -0.000000031573
 27      -0.000132029918
 28      -0.000121124689
 29      -0.000131968330
 30      -0.001008240689
 31      -0.000459771864
 32      -0.000062922518
 33       0.000000000063
 34      -0.000085918742
 35       0.008975760645
 36      -0.004978940722
 37      -0.000000042905
 38       0.000731122182
 39       0.081032530109
 40       0.005591044137
 41      -0.000913596675
 42      -0.000000012327
 43      -0.000691786724
 44      -0.022959168084
 45       0.002926290971
 46       0.000000096430
 47       0.009816926543
 48      -0.989974743428
 49      -0.036700728487
 50      -0.000593913347
 51      -0.000000000848
 52       0.000319444245
 53       0.041653967713
 54       0.010491595348
 55       0.000000033315
 56      -0.005946443366
 57       0.043965452878
 58       0.004001645958
 59       0.000122221151
 60       0.000000009237
 61       0.001011189790
 62      -0.019141867325
 63      -0.005999628991
 64      -0.000000112210
 65      -0.007883789526
 66       0.044671944558
 67       0.001362210164
 68      -0.000213716212
 69      -0.000000000633
 70       0.000126202382
 71       0.006627055503
 72       0.000017549769
 73       0.000000031608
 74       0.003973208241
 75      -0.009862470369
 76      -0.000060389228
 77      -0.000031104412
 78       0.000000000940
 79       0.000109820691
 80      -0.003866986421
 81       0.003369665461
 82       0.000000021730
 83      -0.001016252753
 84      -0.000149410212
 85      -0.001498167645
 86       0.001387609413
 87      -0.001482720755
 88      -0.000120312715
 89      -0.001777043939
 90       0.000001653552
 91       0.000766308035
 92      -0.000127376060
 93      -0.001074100201
 Sym=     1a
 Ene= -1.01968733739441E+01
 Spin= Alpha
 Occup= 2.000000
  1       0.000013896031
  2       0.000248004139
  3      -0.000007615632
  4       0.000000002627
  5       0.000002291388
  6      -0.000099024432
  7      -0.000428955591
  8       0.000000003082
  9       0.001618659814
 10       0.000007443722
 11       0.000120484203
 12       0.000005791573
 13       0.000000004845
 14      -0.000010616102
 15      -0.000756126858
 16      -0.000125597303
 17      -0.000000036484
 18       0.000242333644
 19      -0.000003754590
 20      -0.000012543648
 21      -0.000039728796
 22      -0.000000001696
 23      -0.000026013504
 24       0.000632453723
 25      -0.000133363792
 26       0.000000022015
 27       0.000020408764
 28       0.000070775231
 29      -0.000117835903
 30      -0.001645138698
 31      -0.000618806792
 32      -0.000111583862
 33      -0.000000001402
 34       0.000022774168
 35       0.010446898018
 36      -0.002369500609
 37      -0.000000058284
 38      -0.005135669532
 39       0.000534912467
 40       0.000554285142
 41       0.000002380371
 42      -0.000000000920
 43      -0.000142208195
 44      -0.006037088383
 45       0.001152003940
 46       0.000000040774
 47       0.004409994639
 48      -0.043651819188
 49      -0.001930480994
 50      -0.000062510618
 51      -0.000000002469
 52      -0.000223557593
 53       0.010537705604
 54       0.004487857245
 55       0.000000016043
 56      -0.002558750663
 57       0.046067294812
 58       0.004303872702
 59       0.000933518090
 60       0.000000005290
 61      -0.000310588975
 62      -0.021134115929
 63      -0.010525631678
 64      -0.000000102596
 65      -0.001910719097
 66      -0.987206146254
 67      -0.036719916449
 68      -0.000065710059
 69      -0.000000005398
 70      -0.000691624560
 71       0.042993591809
 72       0.000264906389
 73       0.000000104952
 74       0.012829563067
 75       0.109899117692
 76       0.006681355213
 77      -0.001089421549
 78      -0.000000013907
 79      -0.000425777597
 80      -0.024804799719
 81       0.010647362500
 82       0.000000071728
 83      -0.002790507380
 84      -0.000147742808
 85      -0.001224363916
 86       0.000127878049
 87       0.000665590603
 88      -0.000129675254
 89      -0.001955901253
 90       0.001396441904
 91      -0.001314629198
 92      -0.000194651080
 93      -0.001596072628
 Sym=     1a
 Ene= -1.10945447359180E+00
 Spin= Alpha
 Occup= 2.000000
  1       0.116101159324
  2      -0.241963337590
  3      -0.088683729458