[Molden Format]
[Title]
 Molden file created by orca_2mkl for BaseName=opt

[Atoms] AU
C    1   6          0.0908081948         0.0000770406        -0.0701227339 
O    2   8         -0.1177615503        -0.0000269657         2.5366248558 
O    3   8          2.1871244949        -0.0000175856        -1.1146235940 
H    4   1          1.5758288615        -0.0000965580         3.2904505158 
C    5   6         -2.3752550766         0.0000404642        -1.3730933990 
C    6   6         -4.6704461604         0.0000302659        -0.0346912026 
C    7   6         -6.9572376552         0.0000023637        -1.3541477457 
C    8   6         -6.9645731037        -0.0000187919        -4.0023006698 
C    9   6         -4.6773633221        -0.0000105609        -5.3384565784 
C   10   6         -2.3869875650         0.0000194692        -4.0301820449 
H   11   1         -4.6402637690         0.0000481309         2.0118080766 
H   12   1         -8.7295454395        -0.0000046362        -0.3221478591 
H   13   1         -8.7454872521        -0.0000424196        -5.0211954833 
H   14   1         -4.6833845581        -0.0000273550        -7.3891401956 
H   15   1         -0.5955375522         0.0000271384        -5.0250891257 
[GTO]
  1 0
s   6 1.0 
     3047.5249000000         0.5363343823
      457.3695100000         0.9894506076
      103.9486900000         1.5972822308
       29.2101550000         2.0791870615
        9.2866630000         1.7741742532
        3.1639270000         0.6125798260
s   3 1.0 
        7.8682724000        -0.3995563516
        1.8812885000        -0.1841552393
        0.5442493000         0.5163903794
p   3 1.0 
        7.8682724000         1.2960827175
        1.8812885000         0.9937536282
        0.5442493000         0.4959527138
s   1 1.0 
        0.1687144000         0.1876178721
p   1 1.0 
        0.1687144000         0.1541275509

  2 0
s   6 1.0 
     5484.6717000000         0.8317352088
      825.2349500000         1.5308074829
      188.0469600000         2.4771490916
       52.9645000000         3.2562802462
       16.8975700000         2.7928936336
        5.7996353000         0.9549376963
s   3 1.0 
       15.5396160000        -0.6179336976
        3.5999336000        -0.2757210088
        1.0137618000         0.8142076427
p   3 1.0 
       15.5396160000         3.1169455889
        3.5999336000         2.4014372483
        1.0137618000         1.0543605133
s   1 1.0 
        0.2700058000         0.2669561389
p   1 1.0 
        0.2700058000         0.2774319373

  3 0
s   6 1.0 
     5484.6717000000         0.8317352088
      825.2349500000         1.5308074829
      188.0469600000         2.4771490916
       52.9645000000         3.2562802462
       16.8975700000         2.7928936336
        5.7996353000         0.9549376963
s   3 1.0 
       15.5396160000        -0.6179336976
        3.5999336000        -0.2757210088
        1.0137618000         0.8142076427
p   3 1.0 
       15.5396160000         3.1169455889
        3.5999336000         2.4014372483
        1.0137618000         1.0543605133
s   1 1.0 
        0.2700058000         0.2669561389
p   1 1.0 
        0.2700058000         0.2774319373

  4 0
s   3 1.0 
       18.7311370000         0.2149354183
        2.8253937000         0.3645711272
        0.6401217000         0.4150514277
s   1 1.0 
        0.1612778000         0.1813806839

  5 0
s   6 1.0 
     3047.5249000000         0.5363343823
      457.3695100000         0.9894506076
      103.9486900000         1.5972822308
       29.2101550000         2.0791870615
        9.2866630000         1.7741742532
        3.1639270000         0.6125798260
s   3 1.0 
        7.8682724000        -0.3995563516
        1.8812885000        -0.1841552393
        0.5442493000         0.5163903794
p   3 1.0 
        7.8682724000         1.2960827175
        1.8812885000         0.9937536282
        0.5442493000         0.4959527138
s   1 1.0 
        0.1687144000         0.1876178721
p   1 1.0 
        0.1687144000         0.1541275509

  6 0
s   6 1.0 
     3047.5249000000         0.5363343823
      457.3695100000         0.9894506076
      103.9486900000         1.5972822308
       29.2101550000         2.0791870615
        9.2866630000         1.7741742532
        3.1639270000         0.6125798260
s   3 1.0 
        7.8682724000        -0.3995563516
        1.8812885000        -0.1841552393
        0.5442493000         0.5163903794
p   3 1.0 
        7.8682724000         1.2960827175
        1.8812885000         0.9937536282
        0.5442493000         0.4959527138
s   1 1.0 
        0.1687144000         0.1876178721
p   1 1.0 
        0.1687144000         0.1541275509

  7 0
s   6 1.0 
     3047.5249000000         0.5363343823
      457.3695100000         0.9894506076
      103.9486900000         1.5972822308
       29.2101550000         2.0791870615
        9.2866630000         1.7741742532
        3.1639270000         0.6125798260
s   3 1.0 
        7.8682724000        -0.3995563516
        1.8812885000        -0.1841552393
        0.5442493000         0.5163903794
p   3 1.0 
        7.8682724000         1.2960827175
        1.8812885000         0.9937536282
        0.5442493000         0.4959527138
s   1 1.0 
        0.1687144000         0.1876178721
p   1 1.0 
        0.1687144000         0.1541275509

  8 0
s   6 1.0 
     3047.5249000000         0.5363343823
      457.3695100000         0.9894506076
      103.9486900000         1.5972822308
       29.2101550000         2.0791870615
        9.2866630000         1.7741742532
        3.1639270000         0.6125798260
s   3 1.0 
        7.8682724000        -0.3995563516
        1.8812885000        -0.1841552393
        0.5442493000         0.5163903794
p   3 1.0 
        7.8682724000         1.2960827175
        1.8812885000         0.9937536282
        0.5442493000         0.4959527138
s   1 1.0 
        0.1687144000         0.1876178721
p   1 1.0 
        0.1687144000         0.1541275509

  9 0
s   6 1.0 
     3047.5249000000         0.5363343823
      457.3695100000         0.9894506076
      103.9486900000         1.5972822308
       29.2101550000         2.0791870615
        9.2866630000         1.7741742532
        3.1639270000         0.6125798260
s   3 1.0 
        7.8682724000        -0.3995563516
        1.8812885000        -0.1841552393
        0.5442493000         0.5163903794
p   3 1.0 
        7.8682724000         1.2960827175
        1.8812885000         0.9937536282
        0.5442493000         0.4959527138
s   1 1.0 
        0.1687144000         0.1876178721
p   1 1.0 
        0.1687144000         0.1541275509

 10 0
s   6 1.0 
     3047.5249000000         0.5363343823
      457.3695100000         0.9894506076
      103.9486900000         1.5972822308
       29.2101550000         2.0791870615
        9.2866630000         1.7741742532
        3.1639270000         0.6125798260
s   3 1.0 
        7.8682724000        -0.3995563516
        1.8812885000        -0.1841552393
        0.5442493000         0.5163903794
p   3 1.0 
        7.8682724000         1.2960827175
        1.8812885000         0.9937536282
        0.5442493000         0.4959527138
s   1 1.0 
        0.1687144000         0.1876178721
p   1 1.0 
        0.1687144000         0.1541275509

 11 0
s   3 1.0 
       18.7311370000         0.2149354183
        2.8253937000         0.3645711272
        0.6401217000         0.4150514277
s   1 1.0 
        0.1612778000         0.1813806839

 12 0
s   3 1.0 
       18.7311370000         0.2149354183
        2.8253937000         0.3645711272
        0.6401217000         0.4150514277
s   1 1.0 
        0.1612778000         0.1813806839

 13 0
s   3 1.0 
       18.7311370000         0.2149354183
        2.8253937000         0.3645711272
        0.6401217000         0.4150514277
s   1 1.0 
        0.1612778000         0.1813806839

 14 0
s   3 1.0 
       18.7311370000         0.2149354183
        2.8253937000         0.3645711272
        0.6401217000         0.4150514277
s   1 1.0 
        0.1612778000         0.1813806839

 15 0
s   3 1.0 
       18.7311370000         0.2149354183
        2.8253937000         0.3645711272
        0.6401217000         0.4150514277
s   1 1.0 
        0.1612778000         0.1813806839

[5D]
[7F]
[9G]
[MO]
 Sym=     1a
 Ene= -1.91909615691613E+01
 Spin= Alpha
 Occup= 2.000000
  1      -0.000027002815
  2       0.000133694713
  3       0.000075370299
  4       0.000000004557
  5      -0.000137005280
  6      -0.005837153698
  7       0.002118616574
  8       0.000000369397
  9      -0.012392171580
 10      -0.995145715613
 11      -0.030025364248
 12      -0.001583376243
 13      -0.000000057033
 14       0.001357511580
 15       0.022230282103
 16       0.002236308004
 17       0.000000271494
 18      -0.005602422906
 19       0.000797236731
 20       0.000697568360
 21      -0.000162969325
 22       0.000000035916
 23      -0.000043064900
 24      -0.003474853902
 25       0.001673554751
 26      -0.000000253676
 27       0.001457008992
 28      -0.000687666324
 29      -0.001686750552
 30      -0.000017598116
 31      -0.000101064567
 32       0.000291936090
 33       0.000000017415
 34      -0.000221194677
 35       0.001559416010
 36      -0.005211328804
 37      -0.000000176017
 38       0.007148534806
 39       0.000027384283
 40       0.000168741259
 41      -0.000070924733
 42      -0.000000021094
 43       0.000040346328
 44      -0.005167733648
 45      -0.003737276654
 46       0.000000088893
 47       0.001604731889
 48       0.000005371851
 49       0.000071407418
 50       0.000071598270
 51       0.000000003273
 52       0.000113177748
 53      -0.000683446855
 54      -0.000233074662
 55      -0.000000050555
 56      -0.001360231486
 57      -0.000000979251
 58      -0.000009688233
 59       0.000031264317
 60      -0.000000003152
 61      -0.000077056740
 62      -0.000025487486
 63       0.000737864421
 64       0.000000017141
 65      -0.000115748966
 66       0.000036699977
 67       0.000305067465
 68      -0.000052805184
 69      -0.000000007316
 70       0.000020393102
 71      -0.003099359572
 72      -0.000714989706
 73      -0.000000000270
 74      -0.001599398385
 75      -0.000005222108
 76       0.000111076172
 77       0.000302270067
 78       0.000000026045
 79       0.000326988241
 80       0.005663986687
 81      -0.001924900719
 82      -0.000000019776
 83       0.000716986647
 84       0.000179490779
 85      -0.000478123672
 86       0.000098707491
 87       0.000152742242
 88       0.000075667571
 89       0.000166759110
 90      -0.000014475605
 91      -0.000404450312
 92       0.000106405623
 93       0.000060122766
 Sym=     1a
 Ene= -1.91425096453165E+01
 Spin= Alpha
 Occup= 2.000000
  1      -0.000265439138
  2      -0.000706884553
  3       0.000111912100
  4      -0.000000010000
  5      -0.000043750905
  6      -0.008134195272
  7      -0.014266115629
  8       0.000000469806
  9       0.009432860454
 10      -0.000739697644
 11       0.000674895855
 12      -0.000103906381
 13       0.000000045793
 14      -0.000154335077
 15      -0.003985248028
 16       0.001899879789
 17      -0.000000306264
 18       0.001493598017
 19      -0.995196202122
 20      -0.030584144731
 21       0.002153379184
 22      -0.000000136013
 23      -0.001120300041
 24       0.026844465611
 25      -0.007267872132
 26       0.000000448224
 27       0.003337600263
 28      -0.000143574445
 29      -0.000205717037
 30      -0.000014217604
 31      -0.000052282898
 32      -0.000101203816
 33       0.000000025868
 34       0.000440935108
 35      -0.001440407628
 36       0.003228900837
 37      -0.000000291360
 38      -0.010910295782
 39      -0.000009778849
 40       0.000102094376
 41       0.000412538066
 42       0.000000025438
 43       0.000067582163
 44       0.006277304349
 45       0.001513860752
 46       0.000000005591
 47      -0.001777135687
 48       0.000027808913
 49       0.000235231680
 50      -0.000010603013
 51      -0.000000008446
 52      -0.000080843241
 53      -0.001756559071
 54      -0.001177057046
 55       0.000000012002
 56       0.000707414805
 57       0.000003943957
 58       0.000034817231
 59      -0.000045939202
 60      -0.000000003280
 61       0.000094104478
 62      -0.000331798887
 63      -0.000281404423
 64       0.000000018053
 65       0.000531318989
 66      -0.000011582794
 67      -0.000053240315
 68       0.000162715518
 69       0.000000003591
 70       0.000016313767
 71       0.001312286225
 72      -0.000735680333
 73      -0.000000038041
 74       0.001281537270
 75       0.000028176747
 76       0.000116207414
 77      -0.000142400399
 78      -0.000000024531
 79      -0.000200530545
 80      -0.007276861916
 81       0.001138018925
 82       0.000000101732
 83      -0.003847265638
 84      -0.000019076915
 85       0.000180448040
 86      -0.000056008543
 87      -0.000407483615
 88       0.000024950631
 89       0.000004049793
 90       0.000087658607
 91       0.000308045755
 92       0.000072476338
 93      -0.000650086781
 Sym=     1a
 Ene= -1.03289131861171E+01
 Spin= Alpha
 Occup= 2.000000
  1      -0.995140879829
  2      -0.034560416921
  3      -0.000631705875
  4       0.000000135040
  5      -0.000149446496
  6       0.019510887342
  7      -0.010218114400
  8      -0.000000140737
  9      -0.002426821526
 10      -0.000061115675
 11      -0.000335661409
 12      -0.000148293784
 13       0.000000006968
 14      -0.000378921234
 15       0.000222850763
 16       0.002116579177
 17       0.000000065672
 18      -0.000801177126
 19       0.000070104541
 20      -0.000398640718
 21      -0.000544592513
 22      -0.000000006486
 23       0.000151301734
 24       0.003823322802
 25      -0.001593435586
 26       0.000000257636
 27       0.002442236476
 28      -0.000577165504
 29      -0.000385115582
 30      -0.000771433540
 31       0.001828483150
 32       0.000748481805
 33       0.000000016032
 34       0.000591553739
 35      -0.013153945127
 36      -0.003380353151
 37      -0.000000102311
 38      -0.006012736386
 39       0.000021762871
 40       0.000079687981
 41       0.000364297307
 42       0.000000013340
 43       0.000138450791
 44       0.004797128255
 45      -0.000123853091
 46      -0.000000037374
 47      -0.002501949310
 48       0.000093495026
 49       0.000497919081
 50       0.000030370467
 51      -0.000000002548
 52      -0.000044581216
 53      -0.004430007150
 54      -0.002802672687
 55       0.000000002163
 56       0.001312368283
 57      -0.000007079171
 58      -0.000036231318
 59       0.000045799050
 60       0.000000000811
 61       0.000049051028
 62       0.002654094942
 63       0.001354821034
 64       0.000000016871
 65       0.001346217789
 66       0.000076919985
 67       0.000424620661
 68       0.000021271607
 69      -0.000000005311
 70       0.000009442639
 71      -0.004538813004
 72      -0.001540705406
 73      -0.000000025830
 74      -0.002378999375
 75       0.000038210893
 76       0.000230591577
 77       0.000261137919
 78       0.000000004545
 79       0.000155729577
 80       0.000777052209
 81      -0.003126290870
 82      -0.000000039186
 83      -0.002034757182
 84       0.000100149846
 85       0.000712258851
 86      -0.000105657560
 87      -0.000962674435
 88       0.000092078856
 89       0.000344549131
 90      -0.000025473821
 91      -0.000705518775
 92       0.000258070102
 93       0.000475117838
 Sym=     1a
 Ene= -1.02093932308829E+01
 Spin= Alpha
 Occup= 2.000000
  1       0.000910570242
  2       0.001846409669
  3      -0.000881502376
  4      -0.000000007697
  5      -0.000395455171
  6      -0.009932201587
  7       0.004407568666
  8       0.000000101951
  9       0.002610897936
 10      -0.000003716413
 11      -0.000033560377
 12       0.000013826468
 13      -0.000000000870
 14      -0.000067647437
 15       0.000683108005
 16      -0.000145585804
 17      -0.000000004961
 18      -0.000073962378
 19      -0.000005111253
 20      -0.000022047107
 21      -0.000016919050
 22      -0.000000000563
 23       0.000071906556
 24       0.000683972659
 25      -0.000615395335
 26       0.000000001208
 27      -0.000336508792
 28      -0.000098491972
 29      -0.000341462147
 30      -0.994864452213
 31      -0.036775009821
 32      -0.000144810946
 33      -0.000000016285
 34      -0.000040612254
 35       0.040924507646
 36      -0.001331612203
 37      -0.000000010867
 38      -0.001213979889
 39      -0.021268005220
 40       0.001449013586
 41       0.000898362561
 42       0.000000002613
 43      -0.000573829845
 44      -0.012734428836
 45      -0.004477388913
 46      -0.000000004225
 47       0.004889041489
 48      -0.000582254673
 49      -0.000130883345
 50       0.000114911908
 51       0.000000002540
 52       0.000124929854
 53       0.003989550182
 54       0.002118894334
 55      -0.000000000291
 56      -0.002004781589
 57       0.001032782889
 58       0.000433925992
 59       0.000072121302
 60       0.000000001619
 61       0.000048547315
 62      -0.004787661868
 63      -0.002336992392
 64      -0.000000029951
 65      -0.001371051199
 66      -0.000544848521
 67      -0.000147265382
 68       0.000175805271
 69       0.000000002560
 70       0.000040097796
 71       0.004266442082
 72      -0.000516952011
 73       0.000000017114
 74       0.002968712264
 75      -0.019494619717
 76       0.001506890690
 77      -0.000064491429
 78       0.000000006051
 79       0.001041335267
 80      -0.013339965177
 81       0.002221833432
 82      -0.000000030131
 83      -0.006356786880
 84       0.000209082142
 85      -0.000762824897
 86       0.000093699866
 87       0.000485509786
 88      -0.000066387980
 89      -0.000679492758
 90       0.000093865395
 91       0.000510981927
 92       0.000189822647
 93      -0.000769948207
 Sym=     1a
 Ene= -1.02016647783932E+01
 Spin= Alpha
 Occup= 2.000000
  1       0.000012208565
  2       0.000124300211
  3       0.000045091683
  4       0.000000000750
  5       0.000034046672
  6      -0.002747440974
  7       0.001387754177
  8       0.000000022710
  9       0.000664490843
 10       0.000000416114
 11       0.000001471395
 12       0.000021243907
 13       0.000000001411
 14      -0.000014527303
 15       0.000059574044
 16      -0.000141309870
 17      -0.000000005568
 18       0.000006369013
 19       0.000001789920
 20       0.000028048308
 21       0.000009715813
 22       0.000000001705
 23       0.000023622928
 24      -0.000114117192
 25      -0.000090942036
 26      -0.000000010714
 27      -0.000169806689
 28       0.000024208524
 29      -0.000082680235
 30      -0.000667584432
 31       0.000418371446
 32      -0.000237144760
 33      -0.000000004468
 34      -0.000129738053
 35      -0.005234266516
 36       0.005142376038
 37       0.000000073732
 38       0.002821097828
 39      -0.006483623121
 40      -0.000355033331
 41      -0.000245853298
 42      -0.000000003587
 43      -0.000144424179
 44       0.007739869300
 45      -0.000148085063
 46      -0.000000035177
 47      -0.004633398146
 48      -0.046365217713
 49       0.000824602732
 50       0.000074249325
 51      -0.000000007125
 52      -0.001041005612
 53      -0.016581731315
 54      -0.005643745812
 55       0.000000010674
 56       0.007155333778
 57      -0.993140610473
 58      -0.036185361763
 59      -0.000421428125
 60      -0.000000005480
 61      -0.000236756193
 62       0.038279446186
 63       0.008960019995
 64       0.000000115362
 65       0.005098378723
 66      -0.044392470050
 67       0.000890267269
 68      -0.000860086949
 69      -0.000000002153
 70       0.000591075951
 71      -0.016609076799
 72       0.003348264731
 73      -0.000000040811
 74      -0.008486441877
 75      -0.004359223848
 76      -0.000276232576
 77      -0.000249802007
 78      -0.000000003590
 79      -0.000143341222
 80       0.007570597924
 81      -0.004043482703
 82      -0.000000018575
 83       0.002163596757
 84       0.000144623092
 85       0.000788386747
 86       0.000016916284
 87      -0.002017800883
 88       0.001376201142
 89      -0.001910930953
 90       0.000014762304
 91      -0.002011421495
 92       0.000139894889
 93       0.000796804393
 Sym=     1a
 Ene= -1.01997819002822E+01
 Spin= Alpha
 Occup= 2.000000
  1       0.000020593163
  2      -0.000310813589
  3      -0.000025167025
  4      -0.000000000031
  5      -0.000060560968
  6       0.003061665899
  7      -0.001734242474
  8       0.000000002230
  9      -0.000923771966
 10       0.000001515641
 11      -0.000015544695
 12      -0.000001837818
 13       0.000000001767
 14       0.000056939090
 15      -0.000081690568
 16       0.000242039003
 17      -0.000000004122
 18      -0.000142580867
 19      -0.000013333736
 20      -0.000238160223
 21       0.000018826034
 22      -0.000000003503
 23       0.000002862571
 24       0.000766399620
 25      -0.000260873352
 26       0.000000018270
 27       0.000128757747
 28      -0.000032899423
 29       0.000160645459
 30      -0.021397991278
 31      -0.003123401797
 32       0.001134133186
 33       0.000000008921
 34      -0.000478255573
 35       0.017220860425
 36      -0.011674044229
 37      -0.000000129373
 38      -0.000925763000
 39       0.991730591964
 40       0.036401332164
 41       0.000113587257
 42      -0.000000002767
 43      -0.000603095924
 44      -0.040281752478
 45      -0.000711059416
 46       0.000000074417
 47       0.011321051893
 48       0.080034176831
 49       0.000395812294
 50      -0.000897211920
 51      -0.000000010763
 52      -0.000415903784
 53       0.015534032894
 54       0.009054523884
 55       0.000000064574
 56      -0.001154855073
 57      -0.009946504772
 58      -0.000309584820
 59       0.000026073842
 60      -0.000000002417
 61      -0.000353404260
 62      -0.006315323760
 63      -0.003358983977
 64      -0.000000042931
 65      -0.001766037845
 66      -0.004229626916
 67      -0.000598360779
 68       0.000032092583
 69      -0.000000000708
 70      -0.000102806168
 71       0.006353409114
 72       0.000233763317
 73       0.000000030843
 74       0.003749362999
 75      -0.006264560399
 76      -0.000055166617
 77       0.000010913830
 78      -0.000000001885
 79      -0.000234700649
 80      -0.006852271837
 81       0.004283329612
 82       0.000000027924
 83      -0.001802148586
 84      -0.001404621556
 85       0.001705128944
 86      -0.000039055902
 87       0.002132662335
 88      -0.000073907705
 89      -0.000609180675
 90       0.000108896071
 91       0.000945734754
 92      -0.000109870733
 93      -0.000980737863
 Sym=     1a
 Ene= -1.01989060928257E+01
 Spin= Alpha
 Occup= 2.000000
  1       0.000002106965
  2      -0.000267879061
  3      -0.000029884003
  4      -0.000000001184
  5      -0.000005307110
  6       0.003271238515
  7      -0.001401142244
  8      -0.000000003231
  9      -0.001506554935
 10      -0.000013538823
 11      -0.000235891264
 12       0.000043215639
 13      -0.000000008152
 14       0.000050377449
 15       0.000824762261
 16      -0.000253062312
 17       0.000000041249
 18      -0.000524422163
 19       0.000005403498
 20       0.000065803579
 21       0.000009015545
 22       0.000000002969
 23      -0.000034479223
 24      -0.000396380187
 25       0.000258639503
 26      -0.000000014661
 27       0.000343311537
 28       0.000038168768
 29       0.000289990994
 30      -0.019851992608
 31      -0.003081835607
 32       0.000212448225
 33       0.000000013300
 34       0.001201246129
 35       0.017316169998
 36      -0.007382907461
 37      -0.000000150781
 38      -0.008792137693
 39       0.006641742313
 40       0.000419235327
 41      -0.000206984084
 42      -0.000000002938
 43       0.000124142899
 44      -0.007759014848
 45       0.000249801592
 46       0.000000048835
 47       0.004893595342
 48      -0.004863413192
 49      -0.000651369317
 50      -0.000078436999
 51       0.000000000394
 52       0.000095526251
 53       0.006398591531
 54       0.003388855760
 55       0.000000008113
 56      -0.001803963641
 57      -0.009014290115
 58      -0.000348911537
 59      -0.000314207928
 60      -0.000000001193
 61       0.000203059803
 62      -0.005933272909
 63      -0.002927829521
 64      -0.000000039042
 65      -0.002028371558
 66       0.109478527738
 67       0.001493440950
 68      -0.000816599712
 69      -0.000000011541
 70      -0.000545714648
 71       0.014247185238
 72       0.003566342630
 73       0.000000096311
 74       0.008008032264
 75       0.988936164693
 76       0.036224089554
 77      -0.000414864490
 78       0.000000000005
 79       0.000437499895
 80      -0.039208663425
 81       0.009102539183
 82       0.000000029602
 83      -0.006141395587
 84      -0.000116539450
 85      -0.001030330384
 86       0.000118017719
 87       0.000978742056
 88      -0.000068394040
 89      -0.000541501963
 90      -0.000082093845
 91       0.002173562934
 92      -0.001391319288
 93       0.001703890073
 Sym=     1a
 Ene= -1.01970396687225E+01
 Spin= Alpha
 Occup= 2.000000
  1      -0.000007675089
  2      -0.000292420815
  3       0.000000919503
  4       0.000000000629
  5       0.000000529509
  6      -0.000131464478
  7      -0.000975265524
  8      -0.000000002173
  9       0.000885839577
 10       0.000002629412
 11      -0.000024271485
 12       0.000079967356
 13      -0.000000000747
 14       0.000044290032
 15      -0.000409168098
 16      -0.000322519115
 17      -0.000000007032
 18      -0.000016826222
 19      -0.000006640171
 20      -0.000099784945
 21      -0.000016109778
 22      -0.000000003309
 23      -0.000005438237
 24       0.000750347226
 25      -0.000105395532
 26       0.000000031528
 27       0.000131966174
 28       0.000120881127
 29       0.000132411724
 30       0.001009041543
 31       0.000461099629
 32       0.000063565536
 33      -0.000000000071
 34       0.000085752483
 35      -0.009007111798
 36       0.004984380790
 37       0.000000043401
 38      -0.000713873081
 39      -0.080792473804
 40      -0.005584052116
 41       0.000913581812
 42       0.000000012494
 43       0.000692112534
 44       0.022970287614
 45      -0.002930370541
 46      -0.000000096741
 47      -0.009829417955
 48       0.990133403786
 49       0.036707254059
 50       0.000593913285
 51       0.000000000915
 52      -0.000318856066
 53      -0.041687132345
 54      -0.010505033549
 55      -0.000000033422
 56       0.005955418326
 57      -0.044209656600
 58      -0.004019480993
 59      -0.000125447711
 60      -0.000000009286
 61      -0.001010226757
 62       0.019215433011
 63       0.006035386911
 64       0.000000112677
 65       0.007890204550
 66      -0.041303689523
 67      -0.001236898611
 68       0.000213848249
 69       0.000000000704
 70      -0.000123833236
 71      -0.006773178028
 72      -0.000017991328
 73      -0.000000031831
 74      -0.004016534398
 75       0.009516805042
 76       0.000038694160
 77       0.000034787318
 78      -0.000000000873
 79      -0.000108423410
 80       0.003949358524
 81      -0.003404993929
 82      -0.000000021889
 83       0.001025327462
 84       0.000149579195
 85       0.001502788317
 86      -0.001388050349
 87       0.001480818748
 88       0.000120853920
 89       0.001783387290
 90      -0.000006395847
 91      -0.000761691887
 92       0.000127984169
 93       0.001079420152
 Sym=     1a
 Ene= -1.01968638565818E+01
 Spin= Alpha
 Occup= 2.000000
  1      -0.000013778134
  2      -0.000247022782
  3       0.000007631940
  4       0.000000000648
  5      -0.000002306966
  6       0.000099902496
  7       0.000432129451
  8      -0.000000006178
  9      -0.001621802854
 10      -0.000007453226
 11      -0.000120401998
 12      -0.000006058104
 13      -0.000000005256
 14       0.000010466304
 15       0.000757532408
 16       0.000126662617
 17       0.000000037864
 18      -0.000242300235
 19       0.000003778423
 20       0.000012898036
 21       0.000039785297
 22       0.000000001687
 23       0.000026026624
 24      -0.000635081098
 25       0.000133765379
 26      -0.000000021187
 27      -0.000020839353
 28      -0.000071178059
 29       0.000117417629
 30       0.001638294853
 31       0.000616898844
 32       0.000111381254
 33       0.000000000907
 34      -0.000022948483
 35      -0.010414313206
 36       0.002351610259
 37       0.000000059236
 38       0.005137252004
 39      -0.000268749478
 40      -0.000535542778
 41      -0.000005491986
 42       0.000000000920
 43       0.000139865613
 44       0.005957826159
 45      -0.001142084421
 46      -0.000000040570
 47      -0.004375723693
 48       0.040273474191
 49       0.001805086834
 50       0.000060485503
 51       0.000000002263
 52       0.000224704739
 53      -0.010394177878
 54      -0.004451306939
 55      -0.000000015998
 56       0.002537810671
 57      -0.045874256907
 58      -0.004288615909
 59      -0.000933088976
 60      -0.000000005539
 61       0.000314060206
 62       0.021066248242
 63       0.010504225883
 64       0.000000102292
 65       0.001883355667
 66       0.987364375650
 67       0.036724405309
 68       0.000064929019
 69       0.000000006109
 70       0.000691992383
 71      -0.042968458413
 72      -0.000264696434
 73      -0.000000105425
 74      -0.012814761560
 75      -0.109845849193
 76      -0.006678334202
 77       0.001089270960
 78       0.000000013719
 79       0.000426191037
 80       0.024787589544
 81      -0.010634745531
 82      -0.000000072063
 83       0.002786375977
 84       0.000147218877
 85       0.001219023052
 86      -0.000122970403
 87      -0.000670454152
 88       0.000129172163
 89       0.001949788683
 90      -0.001396424235
 91       0.001317524002
 92       0.000194080563
 93       0.001592488593
 Sym=     1a
 Ene= -1.10945756186345E+00
 Spin= Alpha
 Occup= 2.000000
  1      -0.116092825811
  2       0.241946232595
  3       0.088653116290