Generated by Psi4
     FORCE                           UHF                       CC-PVDZ
Number of atoms                            I                8
Charge                                     I                0
Multiplicity                               I                2
Number of electrons                        I               23
Number of alpha electrons                  I               12
Number of beta electrons                   I               11
Number of basis functions                  I               67
Number of independent functions            I               67
Atomic numbers                             I   N=           8
           6           6           1           1           1           6
           1           1
Nuclear charges                            R   N=           8
  6.00000000e+00  6.00000000e+00  1.00000000e+00  1.00000000e+00  1.00000000e+00
  6.00000000e+00  1.00000000e+00  1.00000000e+00
Current cartesian coordinates              R   N=          24
 -1.08520104e-01 -2.73222392e-01  9.90992919e-02  1.01815454e-01  1.27150482e-01
  2.69126120e+00  1.62535955e+00 -4.15819288e-01 -9.87384857e-01  1.92847004e+00
  2.90774200e-01  3.59375845e+00 -1.56070084e+00  2.85790847e-01  3.87558343e+00
 -2.38670151e+00 -5.03434585e-01 -1.19731471e+00 -4.17946781e+00 -3.77801870e-01
 -2.16519072e-01 -2.43023730e+00 -8.13715723e-01 -3.21715953e+00
Integer atomic weights                     I   N=           8
          12          12           1           1           1          12
           1           1
Real atomic weights                        R   N=           8
  1.20000000e+01  1.20000000e+01  1.00782503e+00  1.00782503e+00  1.00782503e+00
  1.20000000e+01  1.00782503e+00  1.00782503e+00
Number of primitive shells                 I               91
Number of contracted shells                I               33
Pure/Cartesian d shells                    I                0
Pure/Cartesian f shells                    I                0
Highest angular momentum                   I                2
Largest degree of contraction              I                8
Shell types                                I   N=          33
           0           0           0           1           1          -2
           0           0           0           1           1          -2
           0           0           1           0           0           1
           0           0           1           0           0           0
           1           1          -2           0           0           1
           0           0           1
Number of primitives per shell             I   N=          33
           8           8           1           3           1           1
           8           8           1           3           1           1
           3           1           1           3           1           1
           3           1           1           8           8           1
           3           1           1           3           1           1
           3           1           1
Shell to atom map                          I   N=          33
           1           1           1           1           1           1
           2           2           2           2           2           2
           3           3           3           4           4           4
           5           5           5           6           6           6
           6           6           6           7           7           7
           8           8           8
Primitive exponents                        R   N=          91
  6.66500000e+03  1.00000000e+03  2.28000000e+02  6.47100000e+01  2.10600000e+01
  7.49500000e+00  2.79700000e+00  5.21500000e-01  6.66500000e+03  1.00000000e+03
  2.28000000e+02  6.47100000e+01  2.10600000e+01  7.49500000e+00  2.79700000e+00
  5.21500000e-01  1.59600000e-01  9.43900000e+00  2.00200000e+00  5.45600000e-01
  1.51700000e-01  5.50000000e-01  6.66500000e+03  1.00000000e+03  2.28000000e+02
  6.47100000e+01  2.10600000e+01  7.49500000e+00  2.79700000e+00  5.21500000e-01
  6.66500000e+03  1.00000000e+03  2.28000000e+02  6.47100000e+01  2.10600000e+01
  7.49500000e+00  2.79700000e+00  5.21500000e-01  1.59600000e-01  9.43900000e+00
  2.00200000e+00  5.45600000e-01  1.51700000e-01  5.50000000e-01  1.30100000e+01
  1.96200000e+00  4.44600000e-01  1.22000000e-01  7.27000000e-01  1.30100000e+01
  1.96200000e+00  4.44600000e-01  1.22000000e-01  7.27000000e-01  1.30100000e+01
  1.96200000e+00  4.44600000e-01  1.22000000e-01  7.27000000e-01  6.66500000e+03
  1.00000000e+03  2.28000000e+02  6.47100000e+01  2.10600000e+01  7.49500000e+00
  2.79700000e+00  5.21500000e-01  6.66500000e+03  1.00000000e+03  2.28000000e+02
  6.47100000e+01  2.10600000e+01  7.49500000e+00  2.79700000e+00  5.21500000e-01
  1.59600000e-01  9.43900000e+00  2.00200000e+00  5.45600000e-01  1.51700000e-01
  5.50000000e-01  1.30100000e+01  1.96200000e+00  4.44600000e-01  1.22000000e-01
  7.27000000e-01  1.30100000e+01  1.96200000e+00  4.44600000e-01  1.22000000e-01
  7.27000000e-01
Contraction coefficients                   R   N=          91
  6.91583963e-04  5.32579615e-03  2.70607210e-02  1.01656846e-01  2.74574824e-01
  4.48294319e-01  2.84902611e-01  1.51948592e-02 -2.93269653e-04 -2.31803547e-03
 -1.14997860e-02 -4.68267270e-02 -1.28466169e-01 -3.01266272e-01 -2.55630702e-01
  1.09379336e+00  1.00000000e+00  5.69792516e-02  3.13207212e-01  7.60376742e-01
  1.00000000e+00  1.00000000e+00  6.91583963e-04  5.32579615e-03  2.70607210e-02
  1.01656846e-01  2.74574824e-01  4.48294319e-01  2.84902611e-01  1.51948592e-02
 -2.93269653e-04 -2.31803547e-03 -1.14997860e-02 -4.68267270e-02 -1.28466169e-01
 -3.01266272e-01 -2.55630702e-01  1.09379336e+00  1.00000000e+00  5.69792516e-02
  3.13207212e-01  7.60376742e-01  1.00000000e+00  1.00000000e+00  3.34987264e-02
  2.34800801e-01  8.13682958e-01  1.00000000e+00  1.00000000e+00  3.34987264e-02
  2.34800801e-01  8.13682958e-01  1.00000000e+00  1.00000000e+00  3.34987264e-02
  2.34800801e-01  8.13682958e-01  1.00000000e+00  1.00000000e+00  6.91583963e-04
  5.32579615e-03  2.70607210e-02  1.01656846e-01  2.74574824e-01  4.48294319e-01
  2.84902611e-01  1.51948592e-02 -2.93269653e-04 -2.31803547e-03 -1.14997860e-02
 -4.68267270e-02 -1.28466169e-01 -3.01266272e-01 -2.55630702e-01  1.09379336e+00
  1.00000000e+00  5.69792516e-02  3.13207212e-01  7.60376742e-01  1.00000000e+00
  1.00000000e+00  3.34987264e-02  2.34800801e-01  8.13682958e-01  1.00000000e+00
  1.00000000e+00  3.34987264e-02  2.34800801e-01  8.13682958e-01  1.00000000e+00
  1.00000000e+00
Coordinates of each shell                  R   N=          99
 -1.08520104e-01 -2.73222392e-01  9.90992919e-02 -1.08520104e-01 -2.73222392e-01
  9.90992919e-02 -1.08520104e-01 -2.73222392e-01  9.90992919e-02 -1.08520104e-01
 -2.73222392e-01  9.90992919e-02 -1.08520104e-01 -2.73222392e-01  9.90992919e-02
 -1.08520104e-01 -2.73222392e-01  9.90992919e-02  1.01815454e-01  1.27150482e-01
  2.69126120e+00  1.01815454e-01  1.27150482e-01  2.69126120e+00  1.01815454e-01
  1.27150482e-01  2.69126120e+00  1.01815454e-01  1.27150482e-01  2.69126120e+00
  1.01815454e-01  1.27150482e-01  2.69126120e+00  1.01815454e-01  1.27150482e-01
  2.69126120e+00  1.62535955e+00 -4.15819288e-01 -9.87384857e-01  1.62535955e+00
 -4.15819288e-01 -9.87384857e-01  1.62535955e+00 -4.15819288e-01 -9.87384857e-01
  1.92847004e+00  2.90774200e-01  3.59375845e+00  1.92847004e+00  2.90774200e-01
  3.59375845e+00  1.92847004e+00  2.90774200e-01  3.59375845e+00 -1.56070084e+00
  2.85790847e-01  3.87558343e+00 -1.56070084e+00  2.85790847e-01  3.87558343e+00
 -1.56070084e+00  2.85790847e-01  3.87558343e+00 -2.38670151e+00 -5.03434585e-01
 -1.19731471e+00 -2.38670151e+00 -5.03434585e-01 -1.19731471e+00 -2.38670151e+00
 -5.03434585e-01 -1.19731471e+00 -2.38670151e+00 -5.03434585e-01 -1.19731471e+00
 -2.38670151e+00 -5.03434585e-01 -1.19731471e+00 -2.38670151e+00 -5.03434585e-01
 -1.19731471e+00 -4.17946781e+00 -3.77801870e-01 -2.16519072e-01 -4.17946781e+00
 -3.77801870e-01 -2.16519072e-01 -4.17946781e+00 -3.77801870e-01 -2.16519072e-01
 -2.43023730e+00 -8.13715723e-01 -3.21715953e+00 -2.43023730e+00 -8.13715723e-01
 -3.21715953e+00 -2.43023730e+00 -8.13715723e-01 -3.21715953e+00
Total Energy                               R     -1.164789657902462e+02
Alpha Orbital Energies                     R   N=          67
 -1.12387254e+01 -1.12386911e+01 -1.12277098e+01 -1.07038289e+00 -9.41628989e-01
 -7.56825335e-01 -6.48390787e-01 -5.98001981e-01 -5.38443958e-01 -5.07417153e-01
 -4.56404674e-01 -3.34622115e-01  1.97973276e-01  2.12068351e-01  2.18335258e-01
  2.30999818e-01  2.78991500e-01  2.84226976e-01  4.22118159e-01  5.11288763e-01
  5.91868628e-01  5.93074171e-01  6.58860255e-01  7.02304754e-01  7.13292814e-01
  7.23131116e-01  7.62184333e-01  8.37544042e-01  8.74557299e-01  8.76851014e-01
  9.47605938e-01  9.79388453e-01  9.86492165e-01  1.12085391e+00  1.14154297e+00
  1.16210225e+00  1.18664065e+00  1.25524297e+00  1.26213599e+00  1.29668427e+00
  1.36913869e+00  1.59463224e+00  1.69375051e+00  1.73965714e+00  1.74556056e+00
  1.75824377e+00  1.84195339e+00  1.87723555e+00  1.88020613e+00  1.89884499e+00
  1.94271416e+00  2.03222521e+00  2.06552593e+00  2.08120604e+00  2.17133540e+00
  2.24471115e+00  2.32731312e+00  2.39557621e+00  2.49465211e+00  2.51417412e+00
  2.58317237e+00  2.63311264e+00  2.76589919e+00  2.89289619e+00  3.01082358e+00
  3.15577597e+00  3.48951198e+00
Alpha MO coefficients                      R   N=        4489
  7.46156321e-02 -8.41462982e-05  7.03636636e-04  5.90198624e-05 -5.02768221e-06
 -3.80718561e-05 -4.05763410e-05  5.27424854e-06  3.80870855e-05 -2.58605119e-04
 -9.71778232e-05 -1.29955968e-04 -3.70623699e-04 -2.54130784e-05  7.10292350e-01
  3.79622607e-03 -4.66473946e-03  4.94089281e-05  1.53579457e-05  9.57206928e-05
 -2.52783961e-04 -1.50310429e-05 -7.52609672e-05  9.67859278e-05  4.26108321e-05
  5.95267433e-05  2.07448769e-04  1.23910598e-05  5.59677704e-05  2.62332570e-04
 -1.53474991e-04  1.25942336e-05  9.59936298e-05 -3.20972195e-04  1.10147878e-03
  4.35364746e-04  3.29271213e-05  1.75500580e-04 -3.69211784e-04  8.61024055e-04
 -3.66148281e-04  3.34701618e-05  2.51253661e-04  7.03172763e-01  3.75553446e-03
 -4.59797866e-03 -6.53623367e-05 -1.39005420e-05 -8.47509509e-05 -3.05715469e-05
  4.00494135e-05  2.63939778e-04  1.46634909e-04  1.51374712e-05  6.79592744e-05
  1.77369422e-04  7.36374052e-06 -3.67721425e-04  8.51907746e-04 -3.82937737e-04
  2.80540412e-05  2.17449625e-04 -3.18634726e-04  1.09378445e-03  2.53378813e-05
 -7.02115285e-05 -4.60229999e-04 -3.76719393e-04  4.26496222e-07 -3.51772182e-06
 -1.00245675e-04 -2.53005210e-05 -1.55984767e-04  1.15102627e-03  2.91591370e-04
  1.79809726e-03 -1.54158774e-04  8.62810813e-05 -2.56901239e-05  9.54370321e-05
  1.58102589e-05  7.05337788e-01  4.03196235e-03 -6.62207250e-03 -7.39105669e-06
  1.53872492e-05  1.01015908e-04  1.42235561e-04  1.58070111e-04  1.01809213e-03
 -2.50058099e-05  1.10173911e-05 -3.19489191e-06  2.19536506e-05  2.29243606e-06
 -2.84021715e-07 -1.32072415e-06 -1.51101650e-05 -4.08797524e-06 -2.53012471e-05
 -2.30856077e-04  7.60534963e-04  4.04240701e-04  2.67540948e-05  1.38050763e-04
 -1.46085127e-04  9.03191518e-04 -3.73833737e-04  2.02086286e-05  1.65449848e-04
 -7.12435516e-01 -4.06987515e-03  6.66857232e-03  9.61063422e-05  7.06754509e-06
  3.74308928e-05  8.69625538e-04  9.78439277e-05  5.59880461e-04 -2.93126686e-05
  1.79746381e-05 -6.44322575e-06  8.06870945e-06  2.96187278e-06  1.49779386e-04
 -9.11789574e-04  3.14836874e-04 -3.64186187e-05 -2.65864799e-04  2.34066499e-04
 -7.71558384e-04 -4.69739222e-05  6.45530545e-05  4.25269364e-04  9.99014431e-01
  3.37623970e-03 -8.25159110e-03  1.01062303e-04 -8.29040226e-06 -6.33404567e-05
  8.63407005e-04 -7.10758716e-05 -5.41003731e-04  4.88209132e-04  6.00103232e-05
  2.63170263e-04  8.24676960e-04  3.25599956e-05 -5.33703765e-02 -6.53304895e-04
  2.20024972e-03  1.76245875e-05  1.37172002e-05  8.78454820e-05 -3.98778367e-04
 -1.52945573e-04 -9.61630233e-04 -2.43843235e-04  8.61681046e-05 -1.09229793e-04
 -2.81037181e-04  5.21657012e-06 -3.97213579e-04  9.54860414e-04  4.08867326e-04
 -3.36174926e-05 -2.56207504e-04  9.93139713e-05  1.99152660e-04 -1.20096675e-04
 -1.57990523e-05 -9.22102539e-05  9.88402737e-05  6.96486594e-06  1.61554734e-04
 -1.67423541e-05 -1.23729231e-04 -5.33732718e-02 -6.53330273e-04  2.20029730e-03
 -7.27208996e-05 -9.17525424e-06 -5.33260878e-05  7.08034109e-04  1.27515727e-04
  7.67863354e-04 -7.82226943e-05 -5.24418816e-06 -8.11459750e-05 -3.80738390e-04
 -1.14811493e-05  9.88419585e-05  6.96581154e-06  1.82109798e-04 -1.15339656e-05
 -9.16143449e-05  9.93175561e-05  1.99152247e-04  3.28940818e-05  2.29698040e-05
  1.46856434e-04  2.43271419e-02 -2.73798865e-01 -1.93230352e-01  5.70554112e-02
 -4.69580350e-03 -3.57500371e-02  4.39831883e-02 -3.61860925e-03 -2.75605918e-02
 -1.56728857e-02 -1.39250125e-02 -6.78109169e-03 -1.47502989e-02 -2.55710107e-03
  1.40029552e-02 -2.35828517e-01 -1.36815263e-01  1.49499438e-02  1.31159057e-02
  8.41946284e-02 -1.59740464e-02  1.19448074e-03  9.23028439e-03 -9.51821792e-03
 -4.53339302e-03 -1.23658395e-03  9.02471583e-03 -4.48518473e-04 -1.00480643e-01
 -1.75368720e-02  1.28199230e-02 -1.05432518e-03 -8.03319659e-03 -7.67374237e-02
  4.22908562e-03  1.13901014e-02  1.37504534e-03  7.94129621e-03 -8.79753422e-02
 -8.60772597e-03 -1.11848184e-02  1.34494199e-03  9.77862669e-03  1.40031219e-02
 -2.35830114e-01 -1.36815980e-01 -7.05265385e-02 -8.54346677e-03 -4.93703961e-02
 -1.52623167e-02  1.37488324e-03  1.03428960e-02  5.26988699e-03 -1.26949396e-02
  1.26880990e-03  1.23246120e-04 -1.94077313e-03 -8.79754890e-02 -8.60791667e-03
 -1.37155395e-02  7.03653242e-04  5.82417809e-03 -7.67376998e-02  4.22904918e-03
 -2.38524666e-03 -2.11561082e-03 -1.35840070e-02 -3.37529256e-09 -2.79971496e-07
  5.99340950e-07  1.11165275e-01  2.81690224e-02  1.73707318e-01  3.16533848e-02
  8.02104482e-03  4.94624909e-02  1.88332124e-02 -1.03940769e-02  3.19124739e-03
 -1.13364062e-02 -1.90011514e-03 -1.72538636e-02  2.85315278e-01  2.22719149e-01
  1.71951650e-02 -1.93338767e-03 -1.41580081e-02 -2.61256398e-03 -1.86882153e-04
 -9.83321875e-04  7.96802250e-04 -3.46453608e-03 -1.02541718e-03 -7.58815840e-03
 -7.43183456e-04 -4.61713559e-08  1.35071803e-07  2.14529081e-03  5.43604269e-04
  3.35219984e-03  1.44633133e-01  1.44619049e-02 -1.91170530e-02 -1.61423126e-03
 -8.80480258e-03  1.24255149e-01  8.95089339e-03  1.50404403e-02 -1.42883933e-03
 -1.06729250e-02  1.72538401e-02 -2.85313371e-01 -2.22717590e-01 -2.02863447e-02
  1.15026386e-03  9.32829576e-03  2.18370430e-04 -4.19858129e-04 -2.75792302e-03
  7.61882693e-03 -1.18006531e-03  2.45109657e-03  2.52233033e-03 -1.06086029e-04
 -1.24253887e-01 -8.95082053e-03 -1.61807643e-02  1.13981078e-03  8.89068679e-03
 -1.44632208e-01 -1.44621369e-02  1.29412799e-04 -3.19719600e-03 -2.08649740e-02
  1.24696332e-02 -2.43178513e-01 -1.68809578e-01 -1.07191708e-01  8.81553509e-03
  6.71691677e-02 -3.12662591e-02  2.57185085e-03  1.95915417e-02 -1.13988687e-03
  4.83988129e-03 -1.30652224e-03 -6.79154570e-03  5.51495970e-04 -7.74880371e-03
  1.33050322e-01  1.24386126e-01 -3.49252446e-02  2.84376890e-02  1.88611456e-01
 -1.89239403e-02  1.01080506e-02  6.76293693e-02 -1.69120850e-02  1.52556364e-03
 -4.35274192e-03  1.43097394e-03  2.64239372e-04 -2.46653771e-01 -5.54999683e-02
  2.08708921e-02 -1.71633778e-03 -1.30781053e-02  1.14770245e-01  2.75110891e-02
 -1.31936180e-02 -5.29845529e-04 -2.26653064e-03  1.70913709e-01  3.27730012e-02
  1.68749205e-02 -9.89617959e-04 -7.97361075e-03 -7.74888986e-03  1.33050866e-01
  1.24386195e-01 -1.87243603e-01 -1.01593275e-02 -4.93999996e-02 -6.98755194e-02
 -2.80281687e-03 -1.19867732e-02  5.80984566e-03 -1.10145922e-02 -5.02882751e-04
 -1.22460835e-02 -2.02839277e-03  1.70915044e-01  3.27732195e-02  1.44993727e-02
 -1.59159785e-03 -1.16859379e-02  1.14772441e-01  2.75116810e-02 -3.57015218e-03
  1.90877561e-03  1.27712668e-02 -8.87550389e-04  4.97616943e-02  4.79036280e-02
 -2.14347542e-01  1.76315071e-02  1.34309835e-01 -8.46611975e-02  6.96412545e-03
  5.30486619e-02 -9.39886698e-04 -4.11027755e-03  4.90331040e-05  2.31621439e-03
 -5.66754017e-04  4.73251568e-03 -1.86925175e-02 -4.99202676e-02 -2.44693722e-01
 -2.46874338e-02 -1.38954877e-01 -9.25318863e-02 -7.80526093e-03 -4.25651704e-02
  9.79803183e-03  6.30571214e-04  2.14182220e-03 -3.38883952e-03  7.50056579e-06
 -1.73407258e-01 -4.79565983e-02  1.03635900e-02 -8.52156597e-04 -6.49415844e-03
 -2.26438037e-01 -6.41995373e-02  1.60943781e-02  1.27893164e-03  6.89049157e-03
  7.28775073e-02  1.69446492e-02  1.57903926e-04 -1.12422282e-03 -7.34566429e-03
  4.73261890e-03 -1.86924213e-02 -4.99212917e-02  2.23360929e-02  4.29754322e-02
  2.78292921e-01 -6.72598683e-04  1.54710713e-02  1.00970056e-01 -4.09805019e-03
  8.30007491e-03 -2.12872599e-04  4.97578821e-03  1.40955361e-03  7.28707007e-02
  1.69428156e-02  6.77787361e-03  5.53440238e-04  2.99978006e-03 -2.26437417e-01
 -6.41994386e-02  5.86127703e-04 -2.65088939e-03 -1.73427540e-02 -1.93920847e-08
  1.39827157e-06  1.95375342e-06  1.53887969e-01  3.89957721e-02  2.40472451e-01
  5.06045090e-02  1.28234884e-02  7.90776900e-02  3.43630768e-03 -1.89667381e-03
  5.82580860e-04 -2.06844629e-03 -3.46522564e-04  4.03098924e-03 -3.84819010e-04
 -2.13661239e-02  1.82824003e-01 -3.84459549e-02 -2.67195803e-01  7.30302959e-02
 -1.58684582e-02 -1.10065867e-01  1.26266034e-02  5.72210269e-03  2.70803217e-03
 -5.15100143e-03  7.41029158e-04 -1.83858128e-06 -5.34135464e-07  3.12622046e-03
  7.92136069e-04  4.88479305e-03  3.04027467e-02  9.74683485e-03  1.63568789e-03
 -1.10507261e-03 -7.35397955e-03 -2.46806033e-01 -7.74766913e-02 -1.65282125e-02
  9.94623563e-04  7.97524680e-03 -4.03079483e-03  3.83532506e-04  2.13641217e-02
 -3.22264961e-01  3.11236329e-03  4.93089744e-02 -1.31775482e-01  9.82707346e-04
  1.82720744e-02  2.56031575e-03 -1.41035545e-02 -1.34459919e-04 -3.99049617e-03
 -2.27309319e-03  2.46806893e-01  7.74771025e-02  1.43526583e-02 -1.54588046e-03
 -1.13747888e-02 -3.04082755e-02 -9.74885153e-03 -7.41770280e-03 -3.60149522e-04
 -1.68138662e-03 -1.08544382e-07  4.43466852e-07  1.91882245e-06  1.31298794e-01
  3.32676591e-02  2.05149782e-01  3.26928519e-02  8.28333192e-03  5.10806373e-02
  2.36134261e-02 -1.30335668e-02  4.00070083e-03 -1.42136321e-02 -2.38289989e-03
  5.74404075e-04  3.60690637e-02  5.38287151e-02 -2.60507333e-01 -3.49182011e-02
 -2.04245370e-01 -1.16040501e-01 -1.68664989e-02 -9.95369324e-02  1.26720779e-02
 -1.73772410e-02  1.95274547e-03 -7.90858600e-03 -2.87946773e-03  1.02827562e-05
  5.08565674e-06  4.82565423e-03  1.22294757e-03  7.54156203e-03 -2.63230993e-01
 -1.05811217e-01  1.41141107e-02  1.22444549e-03  6.71381544e-03  1.01979049e-01
  4.33329170e-02  3.08257251e-04 -1.61143508e-03 -1.05365933e-02 -5.74394976e-04
 -3.60721454e-02 -5.38323757e-02 -7.52274214e-02 -5.01533763e-02 -3.20348406e-01
 -4.13264661e-02 -2.30091385e-02 -1.46355621e-01  1.97390548e-02 -5.12069637e-04
  3.53861665e-03 -1.16005700e-02 -3.91266808e-04 -1.01966905e-01 -4.33273656e-02
 -9.75713849e-03 -7.83106560e-04 -4.22937319e-03  2.63224181e-01  1.05808100e-01
  9.88483536e-05  2.37713067e-03  1.54955091e-02  2.54154966e-03  7.10487640e-03
 -7.08031488e-03 -2.61572404e-01  2.15126315e-02  1.63914854e-01 -9.80624952e-02
  8.06481421e-03  6.14503903e-02  1.52091650e-02  3.80727989e-02  3.16600624e-03
 -9.68682529e-03  5.57753204e-03  1.00386288e-03  3.97818872e-02  4.53726951e-02
  1.81464877e-01 -2.38386841e-02 -1.71764556e-01  8.08298666e-02 -9.94583706e-03
 -7.21105063e-02  1.43214513e-03  3.10033149e-02  2.74409380e-04 -3.59396603e-03
  4.65612645e-03 -3.18061582e-01 -1.65098877e-01  1.32963763e-02 -1.09351319e-03
 -8.33147158e-03  1.07173094e-01  5.09421877e-02 -7.48059086e-04 -1.43219786e-03
 -9.27132043e-03 -2.09842637e-01 -1.06506985e-01 -6.63225497e-03  9.55803258e-04
  6.83221240e-03  1.00381289e-03  3.97798170e-02  4.53688046e-02  2.34499644e-01
 -1.04018524e-02 -8.89048871e-02  1.00434576e-01 -4.97909283e-03 -4.14825002e-02
  1.77763180e-02  2.19841639e-02  3.04235243e-03 -1.34317353e-02  3.00629633e-03
 -2.09849582e-01 -1.06510104e-01 -9.07783283e-03  3.36173269e-04  3.01133273e-03
  1.07188937e-01  5.09492482e-02  8.15027045e-03  8.22736747e-04  4.63394121e-03
 -2.24491037e-07  2.31190330e-06  3.46465148e-06  3.43307150e-03 -2.48072080e-01
  3.80305524e-02  1.73064765e-03 -1.25008008e-01  1.91639354e-02  2.50180160e-03
 -2.17562130e-03 -9.23044458e-03  1.03007442e-03  1.50507546e-02 -1.26020705e-07
 -1.00937908e-06  3.05562857e-07  4.90699104e-03 -3.55453988e-01  5.45088862e-02
  3.57283594e-03 -2.58797070e-01  3.96846948e-02 -4.99642106e-03 -4.10030664e-04
  1.83684886e-02 -2.91158963e-03  9.34853852e-04  7.50903403e-06  4.31003439e-06
  1.26780035e-04 -9.18521131e-03  1.40835049e-03 -2.14747100e-06 -7.11216870e-07
  1.50838050e-04 -1.09169857e-02  1.67418132e-03  4.01277119e-06  2.49231212e-06
  1.56551316e-04 -1.13250751e-02  1.73647210e-03 -1.40433139e-07 -1.25858567e-06
 -3.25409573e-07  4.90091292e-03 -3.55454471e-01  5.44996922e-02  3.56985648e-03
 -2.58796782e-01  3.96802371e-02  2.36713025e-03  2.69380866e-03 -8.67061808e-03
  1.83022121e-03 -1.67481532e-02  4.46688614e-06  2.66627930e-06  1.56483032e-04
 -1.13250517e-02  1.73627767e-03 -2.51481892e-06 -9.30881671e-07  1.50512537e-04
 -1.09170255e-02  1.67368086e-03 -1.22208657e-08 -1.75438102e-07 -1.63518046e-08
 -5.24877139e-07  1.92094897e-06 -1.29383151e-06 -4.79657359e-07  1.31696258e-06
 -7.69607791e-07  9.43865392e-03  3.97817415e-03 -3.46573377e-02  6.07750052e-03
 -2.26652548e-02 -3.81742226e-08 -2.29317402e-07  2.66564615e-07  5.91126646e-03
 -4.27888403e-01  6.56126424e-02  5.26982143e-03 -3.81451982e-01  5.84915674e-02
 -1.12571288e-03  1.92090049e-04  4.14224199e-03 -6.04767141e-04 -1.64307676e-03
 -5.29260068e-08  3.46865977e-08 -6.24377028e-09  7.44034265e-08 -2.02816891e-08
  1.59652459e-07  2.50832675e-07  2.00128859e-04 -1.44871840e-02  2.22149591e-03
 -8.31141609e-07  1.18417913e-09  1.86478833e-04 -1.35047012e-02  2.07086536e-03
  5.27768352e-08  7.91836747e-07  9.13918020e-07 -5.90458344e-03  4.27888922e-01
 -6.56023779e-02 -5.26427670e-03  3.81451971e-01 -5.84831825e-02 -9.30769820e-05
 -7.05679786e-04  3.32324195e-04 -1.79889556e-04  4.56951674e-03  4.65746065e-07
 -1.00426260e-07 -1.86306575e-04  1.35046830e-02 -2.07053016e-03 -7.11066373e-07
 -6.48758052e-07 -1.99894171e-04  1.44871761e-02 -2.22117196e-03  2.44295068e-02
 -1.08921356e-02 -7.41894175e-01 -1.14317277e-01  9.39204677e-03  7.16350785e-02
 -4.61322140e-01  3.79166487e-02  2.89081453e-01 -2.93842671e-03  8.55286218e-04
 -1.75247785e-03 -6.15164063e-03 -4.33907753e-05  4.03347763e-02 -5.93800115e-02
 -1.19417433e+00 -3.48119177e-02 -1.57696861e-02 -9.97416070e-02 -1.25026813e-02
 -6.10223223e-02 -3.96934423e-01 -3.28236119e-03  8.11732024e-03 -2.17256148e-03
 -8.90231923e-03  9.94447889e-04 -1.15539077e-02  9.28203086e-01 -9.24527056e-03
  7.59869832e-04  5.79335439e-03  4.50798515e-02  9.33029765e-01 -1.12209564e-02
 -9.91373148e-04 -5.45628640e-03 -7.21755946e-03  6.65811017e-01  4.03069842e-03
 -1.50723632e-03 -1.01944798e-02  4.03345606e-02 -5.93794232e-02 -1.19416454e+00
  7.62364294e-02  1.23702225e-02  7.37829821e-02  3.57285807e-01  3.26819636e-02
  1.80889430e-01  8.56104352e-05  6.25887876e-03 -1.60345717e-03 -1.09292701e-02
  6.53678995e-04 -7.21908287e-03  6.65808814e-01  1.10365582e-02  2.68059669e-04
  7.52963460e-04  4.50795304e-02  9.33027333e-01  1.87094018e-04  1.89946279e-03
  1.23700817e-02 -4.56380330e-06  1.07685343e-05  1.16569728e-04  5.66825112e-03
 -4.08903378e-01  6.26822117e-02  1.33995893e-02 -9.64787763e-01  1.47878320e-01
 -1.44835446e-03  1.26020800e-03  5.34747136e-03 -5.94914602e-04 -8.71845220e-03
  6.98135689e-07 -5.77731059e-06 -3.48967659e-05 -2.77546241e-03  2.02393049e-01
 -3.10377666e-02 -7.35016714e-03  5.36945356e-01 -8.23628609e-02 -1.04890563e-02
 -2.21838940e-04  3.85725990e-02 -5.99868565e-03 -2.19035751e-03 -1.32677342e-05
 -2.03505430e-04  3.32022850e-04 -2.38588663e-02  3.65661049e-03 -1.30847485e-07
 -6.17226481e-05 -1.44714373e-04  1.05094626e-02 -1.61055528e-03  3.79471317e-06
  1.44360291e-04 -1.76578245e-04  1.29081364e-02 -1.98024914e-03  4.00121692e-07
 -5.15017933e-06 -2.54016890e-05 -2.78236283e-03  2.02392955e-01 -3.10485449e-02
 -7.35898108e-03  5.36949306e-01 -8.23756196e-02  3.98369850e-03  5.87849754e-03
 -1.45710024e-02  3.32079045e-03 -3.69450388e-02  2.97453294e-06  1.38214895e-04
 -1.76610451e-04  1.29082571e-02 -1.98016515e-03 -7.37459968e-07 -6.93486474e-05
 -1.45651374e-04  1.05093834e-02 -1.61220785e-03  2.85101302e-02 -4.24847365e-02
 -7.51656276e-01 -1.10619620e-01  9.04354744e-03  6.93264751e-02 -2.93072399e-01
  2.39684545e-02  1.83671221e-01 -8.31987241e-03 -5.44500305e-03 -3.86901603e-03
 -9.73130437e-03 -1.11365453e-03 -1.84465326e-02  2.66585306e-02  5.86273262e-01
 -1.52111496e-01  8.09516827e-03  6.63176901e-02 -6.00957444e-01  2.86440295e-02
  2.40437236e-01 -1.30490905e-04 -6.17651821e-03  1.12588106e-03  7.92517892e-03
 -7.26098382e-04  5.18046010e-02  1.20292556e+00 -1.42084466e-02  1.16544508e-03
  8.90391003e-03 -2.76296691e-03  3.89778187e-01 -1.77416349e-03 -6.44974349e-04
 -4.05620747e-03 -1.76416384e-02 -1.26591213e+00 -1.31258000e-02  1.69569201e-03
  1.22299740e-02 -1.84477603e-02  2.66603085e-02  5.86313052e-01 -1.25626031e-01
  1.48066925e-02  1.07705243e-01 -4.76607986e-01  6.01525593e-02  4.34738812e-01
  1.31200775e-03 -6.97034499e-03  1.36245649e-03  7.05974514e-03 -8.76235082e-04
 -1.76429010e-02 -1.26592852e+00 -1.67851615e-02  7.68465313e-04  6.51231677e-03
 -2.76251850e-03  3.89740704e-01  2.94692136e-03  5.51241674e-04  3.32028576e-03
 -5.97245850e-07  1.71897774e-07  1.61758504e-05  3.76960969e-02  9.55270915e-03
  5.88998244e-02  1.96077401e-01  4.96880432e-02  3.06382433e-01 -3.14320175e-03
  1.73486250e-03 -5.32266020e-04  1.89211563e-03  3.17412411e-04  4.75099037e-02
 -6.14589765e-02 -1.58633299e+00 -6.42080445e-02 -1.73103624e-02 -1.07101889e-01
 -3.50274430e-01 -5.94670373e-02 -3.56248517e-01  6.43759761e-03 -1.23578637e-02
 -8.03525322e-04 -1.51210425e-02 -2.31489526e-03 -8.78655788e-07 -1.92719824e-05
  3.54334242e-03  8.97879470e-04  5.53635458e-03 -1.13186745e-02  1.33032914e+00
 -1.92489816e-02 -2.28986383e-03 -1.31991071e-02  4.66094219e-02  7.24384140e-01
  1.39744327e-02  1.51713891e-04 -2.68615309e-04 -4.75095795e-02  6.14580451e-02
  1.58631935e+00 -7.03904839e-02 -1.67995580e-02 -1.03230042e-01 -1.75695405e-01
 -7.38224856e-02 -4.65657211e-01  1.98929448e-02 -2.17339136e-03  5.26410447e-03
 -7.28109435e-04 -3.42101989e-04 -4.66087791e-02 -7.24352472e-01 -6.21950101e-03
  1.81313283e-03  1.23856025e-02  1.13196328e-02 -1.33034491e+00 -3.82850872e-03
 -3.55806758e-03 -2.28620603e-02  3.26345999e-02 -9.27405780e-02 -1.31220687e+00
 -8.22470283e-02  6.75968250e-03  5.15383229e-02 -1.08509258e+00  8.92339219e-02
  6.79934959e-01  3.91129590e-03  2.98217731e-02 -1.96909304e-03 -2.20626163e-02
  3.95806583e-03 -1.32707184e-02  4.97299811e-02  2.92682177e-01  1.26758418e-01
 -1.62948893e-03 -2.20506187e-02  1.01912737e+00  5.22932084e-03 -5.77883628e-02
 -1.04672270e-02  2.97543126e-03 -2.65058628e-03  9.72400930e-04  4.77999326e-04
 -1.85012069e-02  1.96772092e+00 -2.51843240e-02  2.07110489e-03  1.57810577e-02
 -1.93329756e-02 -1.37882819e+00  1.27039466e-02  5.77398892e-04  2.62003339e-03
  2.99207475e-03  7.47448715e-01  2.49556663e-03 -1.71252873e-03 -1.13924737e-02
 -1.32709570e-02  4.97300128e-02  2.92681661e-01  7.43365879e-02 -1.49126104e-02
 -1.03958918e-01  4.88494678e-01 -1.29226871e-01 -8.86914599e-01  5.00003033e-03
 -5.56095502e-03 -3.07599432e-05 -8.33752610e-03 -1.08329652e-03  2.99194958e-03
  7.47416551e-01  1.14745841e-02  5.62852038e-04  2.63898197e-03 -1.93331284e-02
 -1.37880864e+00  3.03790722e-03 -1.87197619e-03 -1.24839299e-02 -4.13751488e-07
  8.32607580e-07  1.51468638e-05  3.54118496e-02  8.97337325e-03  5.53339916e-02
 -1.07866311e-01 -2.73358052e-02 -1.68571039e-01 -1.54135111e-02  8.50598928e-03
 -2.61145570e-03  9.27813086e-03  1.55513637e-03  9.57812910e-03 -3.96600278e-02
 -2.47141394e-01  2.06076376e-01  7.08167086e-04 -1.39468778e-02  1.15465021e+00
 -6.72228519e-03 -1.47844839e-01  4.17476835e-03  1.18960698e-02  1.74562116e-03
  2.78783276e-03  1.90536798e-03  8.19403890e-07 -1.46752275e-05  6.81275962e-03
  1.72624307e-03  1.06450435e-02 -2.05761654e-02 -1.20829159e+00  1.32371220e-02
  1.88789719e-03  1.11194822e-02  2.97317623e-02  1.67993771e+00  1.61444811e-02
 -1.11888010e-03 -8.75120609e-03 -9.57811846e-03  3.96584057e-02  2.47134577e-01
 -1.00850713e-01  2.59564866e-02  1.78378516e-01 -6.28738941e-01  1.39990601e-01
  9.69657192e-01 -8.82388334e-03 -9.33001556e-03 -2.53280961e-03  1.07875081e-05
 -1.43582011e-03 -2.97327530e-02 -1.67994707e+00 -1.48975207e-02  1.43487961e-03
  1.06999280e-02  2.05773933e-02  1.20830697e+00  4.49914024e-03  2.60639578e-03
  1.65950579e-02  9.34307641e-02 -2.91203564e-02 -4.59189592e+00  1.73102445e-01
 -1.42368186e-02 -1.08473442e-01  2.17557684e+00 -1.78998042e-01 -1.36328751e+00
 -4.54186343e-02 -3.57795940e-02 -2.02866145e-02 -4.72131556e-02 -6.83369448e-03
 -7.22859177e-02 -5.50028470e-02  2.25376470e+00  1.26623363e-02 -3.30292627e-03
 -2.26800563e-02 -9.61241939e-01 -3.33036898e-01 -2.08535281e+00  2.31442655e-02
 -9.64410124e-03  1.12462120e-02  3.24148746e-02 -5.60711645e-04  1.35567441e-04
 -1.33277203e+00 -5.37318248e-03  4.41920247e-04  3.36699021e-03  8.33428751e-02
  7.46372090e-01  1.16148304e-02 -1.29866738e-03 -9.51222689e-03  9.22710015e-02
 -2.34784391e-01 -2.05441400e-02  3.16405220e-04  3.91201769e-03 -7.22851941e-02
 -5.50028171e-02  2.25373924e+00  2.61308132e-02  1.10913814e-04 -1.63135824e-03
  1.49409825e+00  2.89151039e-01  1.75143811e+00  1.03424607e-02 -2.57991356e-03