Generated by Psi4
     FORCE                           UHF                       CC-PVDZ
Number of atoms                            I                8
Charge                                     I                0
Multiplicity                               I                2
Number of electrons                        I               23
Number of alpha electrons                  I               12
Number of beta electrons                   I               11
Number of basis functions                  I               67
Number of independent functions            I               67
Atomic numbers                             I   N=           8
           6           6           1           1           1           6
           1           1
Nuclear charges                            R   N=           8
  6.00000000e+00  6.00000000e+00  1.00000000e+00  1.00000000e+00  1.00000000e+00
  6.00000000e+00  1.00000000e+00  1.00000000e+00
Current cartesian coordinates              R   N=          24
  2.99023036e-02 -3.00986482e-02 -4.98887480e-02  3.67003982e-02 -9.27995902e-02
  2.58067860e+00  1.80249861e+00  3.76355664e-01 -9.98473145e-01  1.74765491e+00
  2.51188565e-01  3.64475070e+00 -1.67385487e+00 -4.88340964e-01  3.63390982e+00
 -2.09094418e+00 -4.52065364e-01 -1.54914274e+00 -1.97898330e+00 -3.78080710e-01
 -3.58873575e+00 -3.91284849e+00 -8.66437284e-01 -7.12054753e-01
Integer atomic weights                     I   N=           8
          12          12           1           1           1          12
           1           1
Real atomic weights                        R   N=           8
  1.20000000e+01  1.20000000e+01  1.00782503e+00  1.00782503e+00  1.00782503e+00
  1.20000000e+01  1.00782503e+00  1.00782503e+00
Number of primitive shells                 I               91
Number of contracted shells                I               33
Pure/Cartesian d shells                    I                0
Pure/Cartesian f shells                    I                0
Highest angular momentum                   I                2
Largest degree of contraction              I                8
Shell types                                I   N=          33
           0           0           0           1           1          -2
           0           0           0           1           1          -2
           0           0           1           0           0           1
           0           0           1           0           0           0
           1           1          -2           0           0           1
           0           0           1
Number of primitives per shell             I   N=          33
           8           8           1           3           1           1
           8           8           1           3           1           1
           3           1           1           3           1           1
           3           1           1           8           8           1
           3           1           1           3           1           1
           3           1           1
Shell to atom map                          I   N=          33
           1           1           1           1           1           1
           2           2           2           2           2           2
           3           3           3           4           4           4
           5           5           5           6           6           6
           6           6           6           7           7           7
           8           8           8
Primitive exponents                        R   N=          91
  6.66500000e+03  1.00000000e+03  2.28000000e+02  6.47100000e+01  2.10600000e+01
  7.49500000e+00  2.79700000e+00  5.21500000e-01  6.66500000e+03  1.00000000e+03
  2.28000000e+02  6.47100000e+01  2.10600000e+01  7.49500000e+00  2.79700000e+00
  5.21500000e-01  1.59600000e-01  9.43900000e+00  2.00200000e+00  5.45600000e-01
  1.51700000e-01  5.50000000e-01  6.66500000e+03  1.00000000e+03  2.28000000e+02
  6.47100000e+01  2.10600000e+01  7.49500000e+00  2.79700000e+00  5.21500000e-01
  6.66500000e+03  1.00000000e+03  2.28000000e+02  6.47100000e+01  2.10600000e+01
  7.49500000e+00  2.79700000e+00  5.21500000e-01  1.59600000e-01  9.43900000e+00
  2.00200000e+00  5.45600000e-01  1.51700000e-01  5.50000000e-01  1.30100000e+01
  1.96200000e+00  4.44600000e-01  1.22000000e-01  7.27000000e-01  1.30100000e+01
  1.96200000e+00  4.44600000e-01  1.22000000e-01  7.27000000e-01  1.30100000e+01
  1.96200000e+00  4.44600000e-01  1.22000000e-01  7.27000000e-01  6.66500000e+03
  1.00000000e+03  2.28000000e+02  6.47100000e+01  2.10600000e+01  7.49500000e+00
  2.79700000e+00  5.21500000e-01  6.66500000e+03  1.00000000e+03  2.28000000e+02
  6.47100000e+01  2.10600000e+01  7.49500000e+00  2.79700000e+00  5.21500000e-01
  1.59600000e-01  9.43900000e+00  2.00200000e+00  5.45600000e-01  1.51700000e-01
  5.50000000e-01  1.30100000e+01  1.96200000e+00  4.44600000e-01  1.22000000e-01
  7.27000000e-01  1.30100000e+01  1.96200000e+00  4.44600000e-01  1.22000000e-01
  7.27000000e-01
Contraction coefficients                   R   N=          91
  6.91583963e-04  5.32579615e-03  2.70607210e-02  1.01656846e-01  2.74574824e-01
  4.48294319e-01  2.84902611e-01  1.51948592e-02 -2.93269653e-04 -2.31803547e-03
 -1.14997860e-02 -4.68267270e-02 -1.28466169e-01 -3.01266272e-01 -2.55630702e-01
  1.09379336e+00  1.00000000e+00  5.69792516e-02  3.13207212e-01  7.60376742e-01
  1.00000000e+00  1.00000000e+00  6.91583963e-04  5.32579615e-03  2.70607210e-02
  1.01656846e-01  2.74574824e-01  4.48294319e-01  2.84902611e-01  1.51948592e-02
 -2.93269653e-04 -2.31803547e-03 -1.14997860e-02 -4.68267270e-02 -1.28466169e-01
 -3.01266272e-01 -2.55630702e-01  1.09379336e+00  1.00000000e+00  5.69792516e-02
  3.13207212e-01  7.60376742e-01  1.00000000e+00  1.00000000e+00  3.34987264e-02
  2.34800801e-01  8.13682958e-01  1.00000000e+00  1.00000000e+00  3.34987264e-02
  2.34800801e-01  8.13682958e-01  1.00000000e+00  1.00000000e+00  3.34987264e-02
  2.34800801e-01  8.13682958e-01  1.00000000e+00  1.00000000e+00  6.91583963e-04
  5.32579615e-03  2.70607210e-02  1.01656846e-01  2.74574824e-01  4.48294319e-01
  2.84902611e-01  1.51948592e-02 -2.93269653e-04 -2.31803547e-03 -1.14997860e-02
 -4.68267270e-02 -1.28466169e-01 -3.01266272e-01 -2.55630702e-01  1.09379336e+00
  1.00000000e+00  5.69792516e-02  3.13207212e-01  7.60376742e-01  1.00000000e+00
  1.00000000e+00  3.34987264e-02  2.34800801e-01  8.13682958e-01  1.00000000e+00
  1.00000000e+00  3.34987264e-02  2.34800801e-01  8.13682958e-01  1.00000000e+00
  1.00000000e+00
Coordinates of each shell                  R   N=          99
  2.99023036e-02 -3.00986482e-02 -4.98887480e-02  2.99023036e-02 -3.00986482e-02
 -4.98887480e-02  2.99023036e-02 -3.00986482e-02 -4.98887480e-02  2.99023036e-02
 -3.00986482e-02 -4.98887480e-02  2.99023036e-02 -3.00986482e-02 -4.98887480e-02
  2.99023036e-02 -3.00986482e-02 -4.98887480e-02  3.67003982e-02 -9.27995902e-02
  2.58067860e+00  3.67003982e-02 -9.27995902e-02  2.58067860e+00  3.67003982e-02
 -9.27995902e-02  2.58067860e+00  3.67003982e-02 -9.27995902e-02  2.58067860e+00
  3.67003982e-02 -9.27995902e-02  2.58067860e+00  3.67003982e-02 -9.27995902e-02
  2.58067860e+00  1.80249861e+00  3.76355664e-01 -9.98473145e-01  1.80249861e+00
  3.76355664e-01 -9.98473145e-01  1.80249861e+00  3.76355664e-01 -9.98473145e-01
  1.74765491e+00  2.51188565e-01  3.64475070e+00  1.74765491e+00  2.51188565e-01
  3.64475070e+00  1.74765491e+00  2.51188565e-01  3.64475070e+00 -1.67385487e+00
 -4.88340964e-01  3.63390982e+00 -1.67385487e+00 -4.88340964e-01  3.63390982e+00
 -1.67385487e+00 -4.88340964e-01  3.63390982e+00 -2.09094418e+00 -4.52065364e-01
 -1.54914274e+00 -2.09094418e+00 -4.52065364e-01 -1.54914274e+00 -2.09094418e+00
 -4.52065364e-01 -1.54914274e+00 -2.09094418e+00 -4.52065364e-01 -1.54914274e+00
 -2.09094418e+00 -4.52065364e-01 -1.54914274e+00 -2.09094418e+00 -4.52065364e-01
 -1.54914274e+00 -1.97898330e+00 -3.78080710e-01 -3.58873575e+00 -1.97898330e+00
 -3.78080710e-01 -3.58873575e+00 -1.97898330e+00 -3.78080710e-01 -3.58873575e+00
 -3.91284849e+00 -8.66437284e-01 -7.12054753e-01 -3.91284849e+00 -8.66437284e-01
 -7.12054753e-01 -3.91284849e+00 -8.66437284e-01 -7.12054753e-01
Total Energy                               R     -1.164789657902362e+02
Alpha Orbital Energies                     R   N=          67
 -1.12387256e+01 -1.12386913e+01 -1.12277102e+01 -1.07038235e+00 -9.41628450e-01
 -7.56825836e-01 -6.48390506e-01 -5.98001356e-01 -5.38443750e-01 -5.07417509e-01
 -4.56404354e-01 -3.34622132e-01  1.97973459e-01  2.12067865e-01  2.18335346e-01
  2.30999722e-01  2.78990735e-01  2.84227378e-01  4.22118247e-01  5.11288465e-01
  5.91867759e-01  5.93074538e-01  6.58860413e-01  7.02305466e-01  7.13292928e-01
  7.23130585e-01  7.62183370e-01  8.37543752e-01  8.74556636e-01  8.76851139e-01
  9.47605778e-01  9.79388035e-01  9.86492403e-01  1.12085409e+00  1.14154196e+00
  1.16210235e+00  1.18663892e+00  1.25524238e+00  1.26213432e+00  1.29668370e+00
  1.36913603e+00  1.59463263e+00  1.69375006e+00  1.73965973e+00  1.74555945e+00
  1.75824677e+00  1.84195039e+00  1.87723520e+00  1.88020667e+00  1.89884393e+00
  1.94271345e+00  2.03222634e+00  2.06552061e+00  2.08120626e+00  2.17133523e+00
  2.24470947e+00  2.32731012e+00  2.39557594e+00  2.49465333e+00  2.51417223e+00
  2.58317519e+00  2.63311317e+00  2.76589789e+00  2.89289423e+00  3.01081901e+00
  3.15577212e+00  3.48951241e+00
Alpha MO coefficients                      R   N=        4489
  7.46160607e-02 -8.41417559e-05  7.03599440e-04  6.03736073e-05  1.38661938e-05
 -3.34852676e-05 -4.18482670e-05 -9.93685335e-06  3.60938975e-05 -2.89342986e-04
 -9.28284760e-05  1.26315461e-06 -3.40260257e-04 -1.51984906e-04  7.10712549e-01
  3.79862267e-03 -4.66866909e-03  4.08198392e-05  6.36668149e-06  1.00720633e-04
 -2.40530502e-04 -4.96477614e-05 -9.66144909e-05  1.11000451e-04  4.69121966e-05
  3.64726865e-07  1.90159043e-04  8.50605154e-05  5.59665945e-05  2.62329490e-04
 -1.56897090e-04 -3.59719189e-05  8.37692275e-05 -3.21114627e-04  1.10193144e-03
  4.11047404e-04  8.36626215e-05  2.13798285e-04 -3.69292631e-04  8.61563298e-04
 -3.76217098e-04 -8.67688398e-05  2.22385433e-04  7.02748006e-01  3.75309624e-03
 -4.59397775e-03 -5.71610917e-05 -1.01493717e-05 -9.09238057e-05 -4.94773542e-05
 -1.71261215e-05  2.63844109e-04  1.57223858e-04  1.08248384e-05 -8.74029722e-06
  1.65383817e-04  7.47993336e-05 -3.18494422e-04  1.09332260e-03  5.98235548e-05
  2.41970620e-05 -4.61496369e-04 -3.67628405e-04  8.51361953e-04 -3.89571252e-04
 -8.87929593e-05  1.86674076e-04 -4.21490583e-04  4.78168434e-07 -3.92750273e-06
 -8.57964448e-05 -1.45074951e-05 -1.65678246e-04  9.84162242e-04  1.66202201e-04
  1.90964393e-03 -1.42529766e-04  1.13169663e-04  2.84061339e-05  7.89358556e-05
  3.27520211e-05  7.04914364e-01  4.02969767e-03 -6.61928024e-03 -1.49495890e-05
 -5.69964114e-06  1.01135697e-04  6.09277210e-05 -1.21577865e-05  1.03826876e-03
 -2.34797781e-05  1.59920247e-05  3.94918261e-06  1.87938726e-05  8.09661919e-06
 -3.16161088e-07 -1.47636017e-06 -1.26984505e-05 -2.09144433e-06 -2.68322476e-05
 -2.30670656e-04  7.59872929e-04  3.83109088e-04  7.86124679e-05  1.73187489e-04
 -1.45856622e-04  9.02682503e-04 -3.76698022e-04 -8.47409142e-05  1.35037988e-04
 -7.12854443e-01 -4.07210561e-03  6.67128975e-03  9.08211352e-05  1.85240468e-05
  4.59042498e-05  8.04616082e-04  1.58396870e-04  6.37666214e-04 -2.72619487e-05
  2.21342150e-05  5.79730045e-06  5.50904832e-06  1.89501860e-06  2.34254772e-04
 -7.72206313e-04 -7.83180277e-05 -2.73039741e-05  4.24956511e-04  1.49994170e-04
 -9.12300485e-04  3.27338881e-04  7.66728277e-05 -2.41486094e-04  9.99014380e-01
  3.37622969e-03 -8.25159237e-03  1.03313007e-04  2.37109358e-05 -5.53001567e-05
  8.82700190e-04  2.02341963e-04 -4.72346262e-04  5.31175800e-04  6.58953181e-05
 -2.87234471e-05  7.65228393e-04  3.45634250e-04 -5.33706276e-02 -6.53298484e-04
  2.20024971e-03  1.04590316e-05  6.83375088e-08  9.00311624e-05 -3.15069085e-04
 -4.36460173e-05 -1.00298176e-03 -2.44676560e-04  9.18894509e-05  3.74497664e-05
 -2.69345462e-04 -1.24748222e-04 -3.97218292e-04  9.54862782e-04  4.17996010e-04
  9.58532041e-05 -2.23688471e-04  9.93145127e-05  1.99150386e-04 -1.09978324e-04
 -2.12649391e-05 -1.03091707e-04  9.88350123e-05  6.96425868e-06  1.66880572e-04
  3.87900463e-05 -1.11058249e-04 -5.33739512e-02 -6.53327787e-04  2.20030593e-03
 -6.67843080e-05 -1.29729747e-05 -5.98937409e-05  6.31241832e-04  1.16144807e-04
  8.33806384e-04 -9.11020077e-05 -2.81231025e-05  7.19446888e-06 -3.51406178e-04
 -1.58725831e-04  9.93175171e-05  1.99149414e-04  2.08245328e-05  8.22496173e-07
  1.50804308e-04  9.88375338e-05  6.96616448e-06  1.84453683e-04  4.17617539e-05
 -7.69523664e-05  2.43270674e-02 -2.73798557e-01 -1.93230234e-01  5.83301444e-02
  1.33719105e-02 -3.12129339e-02  4.49656907e-02  1.03095187e-02 -2.40629875e-02
 -1.85109975e-02 -1.27938088e-02 -1.63784653e-03 -1.30222756e-02 -5.57079534e-03
  1.40028840e-02 -2.35828674e-01 -1.36815546e-01  8.13167299e-03 -3.43215281e-04
  8.61276268e-02 -1.62712567e-02 -3.71237020e-03  7.95353500e-03 -1.01825632e-02
 -2.36299058e-03 -3.05313046e-04  8.37056540e-03  3.85940994e-03 -1.00480606e-01
 -1.75369650e-02  1.31061547e-02  3.00522159e-03 -7.01356899e-03 -7.67372558e-02
  4.22912686e-03  1.04917402e-02  2.04979056e-03  8.96715702e-03 -8.79756187e-02
 -8.60775560e-03 -1.16464628e-02 -2.73552855e-03  8.91108528e-03  1.40030743e-02
 -2.35830246e-01 -1.36816268e-01 -6.49494382e-02 -1.26833441e-02 -5.57232962e-02
 -1.56627965e-02 -3.60978780e-03  9.13528858e-03  3.52973285e-03 -1.30783313e-02
 -3.00863989e-03  1.04379752e-03  8.25049796e-04 -7.67375066e-02  4.22900675e-03
 -1.28596509e-03  6.10485738e-05 -1.38935761e-02 -8.79755681e-02 -8.60805075e-03
 -1.38100682e-02 -3.10107456e-03  4.71136435e-03  1.20553923e-08 -4.77936167e-07
  5.15142555e-07  9.50442658e-02  1.60489083e-02  1.84483258e-01  2.70629206e-02
  4.56981956e-03  5.25306352e-02  1.74632859e-02 -1.36464434e-02 -3.44231481e-03
 -9.33082201e-03 -3.86433635e-03 -1.72538101e-02  2.85315419e-01  2.22719934e-01
  1.78376254e-02  4.16955702e-03 -1.28166738e-02 -2.47058719e-03 -5.04629383e-04
 -1.21214634e-03  1.02433815e-04 -4.15280221e-03 -7.22815625e-04 -6.73560023e-03
 -2.94530896e-03 -1.27738359e-07  8.41873429e-08  1.83420371e-03  3.09716792e-04
  3.56016219e-03  1.44633256e-01  1.44620369e-02 -1.79551484e-02 -3.62637816e-03
 -1.04906774e-02  1.24255380e-01  8.95102158e-03  1.54718943e-02  3.57668265e-03
 -9.48662567e-03  1.72537963e-02 -2.85313377e-01 -2.22718074e-01 -2.04802006e-02
 -4.61542042e-03  7.68841396e-03  4.23403187e-04  1.58892369e-04 -2.76151546e-03
  7.70085057e-03 -1.94504660e-03 -8.15628099e-04  2.56591631e-03  1.21844225e-03
 -1.44632199e-01 -1.44623114e-02  1.72090452e-03  8.85115035e-04 -2.10199953e-02
 -1.24254132e-01 -8.95100367e-03 -1.64466652e-02 -3.74148397e-03  7.59398652e-03
  1.24696386e-02 -2.43178939e-01 -1.68810578e-01 -1.09585077e-01 -2.51280346e-02
  5.86441399e-02 -3.19640043e-02 -7.32893149e-03  1.71047738e-02 -6.34898510e-04
  4.27808758e-03  1.12954442e-03 -6.57791717e-03 -3.10013063e-03 -7.74878005e-03
  1.33050184e-01  1.24386251e-01 -4.84502019e-02 -1.50421245e-02  1.87159808e-01
 -2.36098866e-02 -6.72924459e-03  6.65676273e-02 -1.70680319e-02  3.86757849e-03
  1.53659752e-03  8.36000002e-04  2.71732745e-04 -2.46654072e-01 -5.55000569e-02
  2.13369486e-02  4.89262512e-03 -1.14181906e-02  1.14770928e-01  2.75111618e-02
 -1.26830579e-02 -2.65942609e-03 -3.39979068e-03  1.70912513e-01  3.27727406e-02
  1.70529959e-02  3.84836357e-03 -6.61074407e-03 -7.74889970e-03  1.33050727e-01
  1.24386371e-01 -1.78680459e-01 -3.70332366e-02 -6.56173630e-02 -6.71725791e-02
 -1.40852390e-02 -1.79871573e-02  4.00101186e-03 -1.25964669e-02 -2.61676322e-03
 -1.04213428e-02 -4.39058191e-03  1.14773058e-01  2.75118486e-02 -4.45503216e-03
 -1.27009327e-03  1.25712191e-02  1.70914838e-01  3.27731028e-02  1.50219227e-02
  3.50570276e-03 -1.05535420e-02 -8.87466278e-04  4.97607016e-02  4.79029490e-02
 -2.19135383e-01 -5.02440695e-02  1.17262755e-01 -8.65519913e-02 -1.98447755e-02
  4.63154514e-02 -1.50802834e-03 -3.68213937e-03 -7.96696670e-04  2.37085675e-03
  1.17373605e-03  4.73248876e-03 -1.86923599e-02 -4.99199381e-02 -2.27815985e-01
 -4.53378580e-02 -1.60740868e-01 -8.69127690e-02 -1.75552589e-02 -5.07241160e-02
  1.00434895e-02 -9.87831423e-04 -5.59670659e-04 -2.93396350e-03 -1.30269029e-03
 -1.73408812e-01 -4.79571704e-02  1.05950956e-02  2.42959264e-03 -5.66995820e-03
 -2.26438388e-01 -6.41996202e-02  1.51561164e-02  3.07445890e-03  8.30571194e-03
  7.28790779e-02  1.69449699e-02  7.15568294e-04  3.34958287e-04 -7.39082198e-03
  4.73260427e-03 -1.86921685e-02 -4.99210750e-02  4.94806292e-04 -6.78593973e-03
  2.82392914e-01 -8.37292335e-03 -4.29321608e-03  1.01716245e-01 -2.84150844e-03
  9.08145805e-03  1.98015068e-03  3.95064088e-03  1.54859320e-03 -2.26436225e-01
 -6.41990713e-02  1.89673457e-03  8.35510122e-04 -1.74311026e-02  7.28688977e-02
  1.69422864e-02  6.37515957e-03  1.29067057e-03  3.59649830e-03 -4.91465909e-08
  2.08337007e-06  2.71880705e-06  1.31572164e-01  2.22160033e-02  2.55392758e-01
  4.32658058e-02  7.30538509e-03  8.39838496e-02  3.18661413e-03 -2.49037548e-03
 -6.27947185e-04 -1.70261563e-03 -7.04873738e-04  4.03098381e-03 -3.84379589e-04
 -2.13651017e-02  1.98573640e-01  4.91273313e-02 -2.53872300e-01  7.95766479e-02
  1.97613299e-02 -1.04770852e-01  1.36472895e-02  3.44849014e-03  2.98815685e-04
 -4.81571296e-03 -2.27449375e-03 -1.53690211e-06 -3.67033724e-07  2.67290682e-03
  4.51319800e-04  5.18792621e-03  3.03990763e-02  9.74577090e-03  2.15631558e-03
  6.43637522e-04 -7.27409901e-03 -2.46804304e-01 -7.74760476e-02 -1.67153282e-02
 -3.77615142e-03  6.64158998e-03 -4.03072856e-03  3.82459607e-04  2.13620041e-02
 -3.17795801e-01 -6.92620928e-02  2.24668332e-02 -1.29803909e-01 -2.82439956e-02
  7.28103260e-03  4.35300064e-04 -1.44528785e-02 -3.07463093e-03 -2.70871029e-03
 -8.41445707e-04 -3.04079061e-02 -9.74893275e-03 -7.09956577e-03 -1.47840786e-03
 -2.32155348e-03  2.46806843e-01  7.74771526e-02  1.48551801e-02  3.46232455e-03
 -1.02522808e-02 -1.46092680e-07  1.19457611e-07  2.20103271e-06  1.12262346e-01
  1.89575064e-02  2.17874318e-01  2.79534752e-02  4.72059413e-03  5.42496188e-02
  2.18951150e-02 -1.71115961e-02 -4.31670256e-03 -1.16987217e-02 -4.84521460e-03
  5.74408441e-04  3.60688791e-02  5.38279727e-02 -2.38235867e-01 -4.59524030e-02
 -2.27884206e-01 -1.05465886e-01 -2.01173099e-02 -1.10134379e-01  1.02093386e-02
 -1.93389611e-02 -4.46087680e-03 -5.87224087e-03 -2.14437024e-03  1.41018824e-05
  6.95027399e-06  4.12560349e-03  6.96615918e-04  8.00945797e-03 -2.63231675e-01
 -1.05811504e-01  1.32399061e-02  2.66857069e-03  7.96036247e-03  1.01983466e-01
  4.33345672e-02  1.10614665e-03  4.97592821e-04 -1.05944962e-02 -5.74419905e-04
 -3.60729695e-02 -5.38328940e-02 -4.88180695e-02 -2.51730344e-03 -3.29253780e-01
 -2.90825504e-02 -2.60124490e-03 -1.51012455e-01  1.98430945e-02 -4.14773843e-03
 -1.46399260e-03 -1.01848838e-02 -4.50590150e-03  2.63223695e-01  1.05807846e-01
 -1.08806001e-03 -6.16598615e-04  1.56271211e-02 -1.01966648e-01 -4.33270063e-02
 -9.18440398e-03 -1.86165958e-03 -5.08756803e-03  2.54158131e-03  7.10503857e-03
 -7.08046386e-03 -2.67411783e-01 -6.13173782e-02  1.43114233e-01 -1.00251604e-01
 -2.29876576e-02  5.36519047e-02  2.09486628e-02  3.42724737e-02  6.82855402e-03
 -1.09949582e-02 -5.90332935e-03  1.00388733e-03  3.97822782e-02  4.53738160e-02
  1.89956460e-01  4.49154521e-02 -1.57798757e-01  8.42764420e-02  1.98245819e-02
 -6.58555947e-02  5.94943558e-03  2.97447419e-02  6.32915617e-03 -5.25361394e-03
 -3.17949957e-03 -3.18060514e-01 -1.65097995e-01  1.35932735e-02  3.11690068e-03
 -7.27385652e-03  1.07169959e-01  5.09408497e-02 -1.98833316e-05  2.25014310e-04
 -9.40828044e-03 -2.09842585e-01 -1.06506719e-01 -6.98507617e-03 -1.66476438e-03
  6.32592732e-03  1.00382965e-03  3.97795162e-02  4.53684809e-02  2.35300097e-01
  5.25757176e-02 -6.98001824e-02  1.01038021e-01  2.26567290e-02 -3.33280639e-02
  2.11040491e-02  1.79035991e-02  3.34108467e-03 -1.33507250e-02 -6.53386250e-03
  1.07191630e-01  5.09504183e-02  7.58773096e-03  1.50966992e-03  5.35962311e-03
 -2.09850421e-01 -1.06510259e-01 -9.07599996e-03 -2.01795007e-03  2.26796910e-03
  1.70044042e-07 -2.26674934e-06 -3.05423889e-06 -5.30338326e-02  2.45253220e-01
  5.98783287e-03 -2.67253933e-02  1.23587442e-01  3.01761882e-03  3.43415385e-04
 -2.12850273e-03  8.04639831e-03  6.76873216e-03 -1.44420971e-02  1.27589548e-07
  6.38605572e-07 -5.68863669e-07 -7.59805551e-02  3.51421125e-01  8.56935385e-03
 -5.53197877e-02  2.55860697e-01  6.24036194e-03 -7.95474098e-04  4.08342803e-03
 -1.88148267e-02 -6.67992288e-04  3.60638407e-04 -4.99699816e-06 -2.81212054e-06
 -1.96346746e-03  9.08093548e-03  2.21586163e-04  2.24823160e-06  8.26520680e-07
 -2.33371463e-03  1.07931216e-02  2.63111344e-04 -3.35448466e-06 -1.92421983e-06
 -2.42100115e-03  1.11964821e-02  2.73180114e-04  1.27966037e-07  2.09020034e-06
  2.40585332e-06 -7.59803710e-02  3.51419010e-01  8.57789989e-03 -5.53203817e-02
  2.55858757e-01  6.24462775e-03  4.35075616e-04 -1.84584108e-03  1.03612179e-02
 -6.44412644e-03  1.48124517e-02  2.73214658e-07 -3.29009013e-08 -2.33356223e-03
  1.07930530e-02  2.63410389e-04 -2.93022079e-06 -1.67148916e-06 -2.42106033e-03
  1.11963960e-02  2.73382529e-04  3.76806118e-08  4.64848265e-07  2.33325417e-07
 -2.38376616e-07 -2.97503533e-06  5.21066271e-07  8.99567749e-08 -2.04158826e-06
  3.61323839e-07  1.57728161e-03 -7.59936222e-03  3.73965962e-02 -7.40337964e-03
  1.85237660e-02  3.02103838e-08  4.92421909e-07  5.17363426e-07 -9.14677015e-02
  4.23031572e-01  1.03172740e-02 -8.15413028e-02  3.77122137e-01  9.19820236e-03
 -1.72654176e-04  9.29998648e-04 -4.07457129e-03 -9.19137051e-04  1.78472031e-03
 -1.16562407e-06 -1.04280830e-06  3.66359421e-08 -9.81549283e-08 -2.77299807e-08
 -1.47661046e-07 -1.94797362e-07 -3.09682772e-03  1.43227507e-02  3.49307651e-04
  3.77707107e-07 -5.06490335e-07 -2.88675161e-03  1.33514057e-02  3.25615289e-04
 -6.75080154e-08 -1.49488585e-06 -2.90646364e-06  9.14670385e-02 -4.23030382e-01
 -1.03264128e-02  8.15405080e-02 -3.77120721e-01 -9.20546528e-03 -3.07801672e-05
  5.12352118e-05 -7.53609742e-04  1.87508095e-03 -4.17641396e-03  1.41198229e-06
  9.21822802e-07  3.09680976e-03 -1.43226657e-02 -3.49500474e-04  4.71817361e-07
 -4.41592675e-08  2.88684808e-03 -1.33513268e-02 -3.25949588e-04  2.44292164e-02
 -1.08914834e-02 -7.41888392e-01 -1.16868287e-01 -2.68011646e-02  6.25412288e-02
 -4.71617378e-01 -1.08152238e-01  2.52387894e-01 -3.04897177e-03  6.85876876e-04
  4.32631185e-04 -5.77521879e-03 -2.64061220e-03  4.03350331e-02 -5.93803529e-02
 -1.19418274e+00 -2.62959653e-02 -3.15924657e-03 -1.03477220e-01  1.81646637e-02
  1.37204637e-02 -4.01148649e-01 -2.40270477e-03  7.57605519e-03  1.97737977e-03
 -8.77618504e-03 -4.18595944e-03 -1.15546159e-02  9.28194332e-01 -9.45162679e-03
 -2.16737338e-03  5.05793027e-03  4.50794652e-02  9.33029965e-01 -1.05169814e-02
 -2.11654800e-03 -6.44809957e-03 -7.21684405e-03  6.65819833e-01  4.70711341e-03
  1.26015926e-03 -9.93480108e-03  4.03347319e-02 -5.93795382e-02 -1.19416843e+00
  6.86480713e-02  1.28731709e-02  8.08130839e-02  3.34328964e-01  6.71117616e-02
  2.12523565e-01  7.19727186e-04  5.13620814e-03  1.36131663e-03 -1.04444771e-02
 -4.87765299e-03  4.50791033e-02  9.33026491e-01 -7.63306386e-04 -4.69629531e-04
  1.24843101e-02 -7.21913270e-03  6.65818190e-01  1.06968903e-02  2.27173989e-03
  1.69158541e-03  2.78050477e-06 -7.00792110e-06 -6.75632022e-05 -8.74230989e-02
  4.04256050e-01  9.87012593e-03 -2.06285731e-01  9.53815025e-01  2.33004276e-02
 -1.99345222e-04  1.23292285e-03 -4.66098821e-03 -3.92202979e-03  8.36538194e-03
 -1.20563091e-06  5.72894148e-06  4.78341853e-05  4.32524236e-02 -2.00098179e-01
 -4.87835765e-03  1.14740150e-01 -5.30860445e-01 -1.29232206e-02 -1.65617740e-03
  8.59442529e-03 -3.91331434e-02 -3.12396197e-03  4.57424965e-03  9.41631090e-06
  1.21138100e-04 -5.10187277e-03  2.35874390e-02  5.76166927e-04  4.64721524e-07
  1.62702255e-05  2.24660516e-03 -1.03900728e-02 -2.53849985e-04 -3.73843739e-06
 -1.09635004e-04  2.75792180e-03 -1.27619684e-02 -3.10801966e-04  5.04553303e-07
  2.38809526e-06 -5.50142509e-06  4.32593320e-02 -2.00098932e-01 -4.87335274e-03
  1.14754684e-01 -5.30864781e-01 -1.29295654e-02  7.62486426e-04 -3.05912260e-03
  1.82106233e-02 -1.44762624e-02  3.29783937e-02  8.93955272e-07  4.94376493e-05
  2.24686583e-03 -1.03902106e-02 -2.52870223e-04  1.21061408e-06 -6.57063325e-05
  2.75851497e-03 -1.27620292e-02 -3.11165690e-04  2.85104254e-02 -4.24850306e-02
 -7.51669391e-01 -1.13084198e-01 -2.59641079e-02  6.05206159e-02 -2.99609293e-01
 -6.87852083e-02  1.60343080e-01 -9.58969469e-03 -5.05908641e-03 -4.53530679e-04
 -8.78421710e-03 -3.85417858e-03 -1.84460772e-02  2.66572800e-02  5.86254704e-01
 -1.53296103e-01 -3.44461541e-02  5.39922469e-02 -6.03981428e-01 -1.35217001e-01
  1.91561957e-01 -8.32310232e-04 -5.31438207e-03 -1.31762667e-03  7.67785747e-03
  3.62585534e-03  5.18047246e-02  1.20293956e+00 -1.45254777e-02 -3.33262866e-03
  7.77352676e-03 -2.76262851e-03  3.89790555e-01 -1.41909921e-03 -2.02546030e-04
 -4.23820631e-03 -1.76415406e-02 -1.26589649e+00 -1.37252462e-02 -3.24023430e-03
  1.12180097e-02 -1.84477861e-02  2.66602804e-02  5.86311200e-01 -1.30650372e-01
 -3.06235487e-02  9.79503534e-02 -4.97660370e-01 -1.17271706e-01  3.97928240e-01
  5.03252422e-04 -6.35674837e-03 -1.58604121e-03  6.96526496e-03  3.32825872e-03
 -2.76192730e-03  3.89737917e-01  2.61761094e-03  4.79132384e-04  3.59597796e-03
 -1.76433451e-02 -1.26592502e+00 -1.68538868e-02 -3.76882679e-03  5.14596598e-03
 -7.76834769e-07  4.19380253e-07  2.04888631e-05  3.22296586e-02  5.44961287e-03
  6.25543869e-02  1.67644771e-01  2.83274206e-02  3.25388927e-01 -2.91430581e-03
  2.27752031e-03  5.74745700e-04  1.55725773e-03  6.45315304e-04  4.75098575e-02
 -6.14594307e-02 -1.58633354e+00 -5.43769613e-02 -8.99554321e-03 -1.13380984e-01
 -3.14079707e-01 -5.84394197e-02 -3.88692171e-01  4.36889352e-03 -1.42433924e-02
 -2.92153453e-03 -1.29638719e-02 -5.50034400e-03 -1.29267294e-06 -3.03864232e-05
  3.02957708e-03  5.12007572e-04  5.87979262e-03 -1.13187802e-02  1.33032931e+00
 -1.77477886e-02 -3.47342864e-03 -1.49310444e-02  4.66092929e-02  7.24390625e-01
  1.36378908e-02  2.92627493e-03  9.10348162e-04 -4.75094784e-02  6.14577758e-02
  1.58631562e+00 -6.06981271e-02 -1.04441597e-02 -1.10000651e-01 -1.35606140e-01
 -1.75180642e-02 -4.84213257e-01  2.00459902e-02 -4.83465562e-03 -1.89197455e-03
 -8.15758605e-05  9.80340805e-05  1.13200962e-02 -1.33034713e+00 -1.98300409e-03
  1.41320558e-04 -2.33675410e-02 -4.66084814e-02 -7.24345644e-01 -7.00702274e-03
 -1.80717433e-03  1.19586324e-02  3.26341646e-02 -9.27416054e-02 -1.31219364e+00
 -8.40816666e-02 -1.92835884e-02  4.49970982e-02 -1.10932369e+00 -2.54369837e-01
  5.93631096e-01  7.82224608e-03  2.66408577e-02  6.02986341e-03 -2.20975193e-02
 -1.07412414e-02 -1.32701651e-02  4.97293268e-02  2.92665249e-01  1.25208158e-01
  2.73538199e-02 -1.15132397e-02  9.97511781e-01  2.15011303e-01  2.78912929e-02
 -1.02614751e-02  4.38347112e-03  1.37065273e-03  4.66908838e-04  9.24566672e-05
 -1.85015869e-02  1.96771679e+00 -2.57465020e-02 -5.90369996e-03  1.37783278e-02
 -1.93345413e-02 -1.37884924e+00  1.21789653e-02  2.54286298e-03  3.71474981e-03
  2.99342602e-03  7.47489946e-01  3.30326708e-03  9.89052282e-04 -1.12724307e-02
 -1.32710461e-02  4.97310447e-02  2.92679260e-01  8.03805480e-02  1.97839156e-02
 -9.85001946e-02  5.43777401e-01  1.38395203e-01 -8.52664729e-01  4.08003188e-03
 -6.82434994e-03 -1.45723201e-03 -7.19566057e-03 -3.08186487e-03 -1.93335079e-02
 -1.37877605e+00  3.91453542e-03  1.14729842e-03 -1.23259839e-02  2.99130891e-03
  7.47378249e-01  1.09793136e-02  2.28523501e-03  3.63000337e-03 -1.29550732e-06
  2.50084253e-06  4.93446862e-05  3.02786304e-02  5.11525993e-03  5.87656734e-02
 -9.21918730e-02 -1.55565014e-02 -1.79033155e-01 -1.42926571e-02  1.11670421e-02
  2.81721263e-03  7.63739164e-03  3.16321340e-03  9.57861591e-03 -3.96611333e-02
 -2.47156597e-01  2.01871945e-01  4.35648743e-02  3.36028433e-03  1.13640910e+00
  2.46961796e-01 -5.14255781e-02  6.10931482e-03  1.12961087e-02  2.13609611e-03
  1.89600807e-03  5.59328173e-04  1.50198147e-06 -6.41365337e-05  5.82555837e-03
  9.83856186e-04  1.13051465e-02 -2.05754307e-02 -1.20826037e+00  1.20483335e-02
  2.30428494e-03  1.23266389e-02  2.97317765e-02  1.67991991e+00  1.64007094e-02
  3.72796620e-03 -7.45621199e-03 -9.57808569e-03  3.96571212e-02  2.47138280e-01
 -1.11908275e-01 -2.83796204e-02  1.71277265e-01 -6.86788331e-01 -1.71061054e-01
  9.24256297e-01 -1.04196759e-02 -7.92721715e-03 -1.28623329e-03  4.07332233e-04
  3.95272327e-04  2.05783383e-02  1.20833609e+00  3.11570242e-03  2.55961347e-04
  1.71074712e-02 -2.97333307e-02 -1.67996327e+00 -1.53348308e-02 -3.54832562e-03
  9.52605160e-03  9.34311299e-02 -2.91206858e-02 -4.59188960e+00  1.76967800e-01
  4.05786445e-02 -9.47077669e-02  2.22416964e+00  5.09940730e-01 -1.19029132e+00
 -5.30872406e-02 -3.30043444e-02 -3.77050395e-03 -4.21368955e-02 -1.82492806e-02
 -7.22861952e-02 -5.50023740e-02  2.25377382e+00  1.40719365e-02  3.57450762e-03
 -2.17914275e-02 -7.77243413e-01 -1.14800401e-01 -2.18319768e+00  2.31591573e-02
 -9.64831877e-03 -3.89780238e-03  3.09351871e-02  1.43011613e-02  1.34941412e-04
 -1.33277410e+00 -5.49331157e-03 -1.25963939e-03  2.93979903e-03  8.33399743e-02
  7.46379614e-01  1.20453284e-02  2.81397623e-03 -8.60686400e-03  9.22726758e-02
 -2.34786609e-01 -2.03179183e-02 -4.44666575e-03  2.20671691e-03 -7.22849818e-02
 -5.50024636e-02  2.25372537e+00  2.55876168e-02  5.51924440e-03  5.64098833e-04
  1.32201900e+00  2.39670937e-01  1.89162766e+00  1.12885992e-02 -3.73776143e-04