[Molden Format]
[Atoms] (AU)
C    1    6           0.0299023036        -0.0300986482        -0.0498887480
C    2    6           0.0367003982        -0.0927995902         2.5806786008
H    3    1           1.8024986107         0.3763556641        -0.9984731453
H    4    1           1.7476549087         0.2511885653         3.6447507038
H    5    1          -1.6738548682        -0.4883409636         3.6339098227
C    6    6          -2.0909441797        -0.4520653639        -1.5491427410
H    7    1          -1.9789832967        -0.3780807095        -3.5887357486
H    8    1          -3.9128484887        -0.8664372844        -0.7120547530
[GTO]
  1 0
 s    8  1.00
     6665.0000000000         0.0006920000
     1000.0000000000         0.0053290000
      228.0000000000         0.0270770000
       64.7100000000         0.1017180000
       21.0600000000         0.2747400000
        7.4950000000         0.4485640000
        2.7970000000         0.2850740000
        0.5215000000         0.0152040000
 s    8  1.00
     6665.0000000000        -0.0001460000
     1000.0000000000        -0.0011540000
      228.0000000000        -0.0057250000
       64.7100000000        -0.0233120000
       21.0600000000        -0.0639550000
        7.4950000000        -0.1499810000
        2.7970000000        -0.1272620000
        0.5215000000         0.5445290000
 s    1  1.00
        0.1596000000         1.0000000000
 p    3  1.00
        9.4390000000         0.0381090000
        2.0020000000         0.2094800000
        0.5456000000         0.5085570000
 p    1  1.00
        0.1517000000         1.0000000000
 d    1  1.00
        0.5500000000         1.0000000000

  2 0
 s    8  1.00
     6665.0000000000         0.0006920000
     1000.0000000000         0.0053290000
      228.0000000000         0.0270770000
       64.7100000000         0.1017180000
       21.0600000000         0.2747400000
        7.4950000000         0.4485640000
        2.7970000000         0.2850740000
        0.5215000000         0.0152040000
 s    8  1.00
     6665.0000000000        -0.0001460000
     1000.0000000000        -0.0011540000
      228.0000000000        -0.0057250000
       64.7100000000        -0.0233120000
       21.0600000000        -0.0639550000
        7.4950000000        -0.1499810000
        2.7970000000        -0.1272620000
        0.5215000000         0.5445290000
 s    1  1.00
        0.1596000000         1.0000000000
 p    3  1.00
        9.4390000000         0.0381090000
        2.0020000000         0.2094800000
        0.5456000000         0.5085570000
 p    1  1.00
        0.1517000000         1.0000000000
 d    1  1.00
        0.5500000000         1.0000000000

  3 0
 s    3  1.00
       13.0100000000         0.0196850000
        1.9620000000         0.1379770000
        0.4446000000         0.4781480000
 s    1  1.00
        0.1220000000         1.0000000000
 p    1  1.00
        0.7270000000         1.0000000000

  4 0
 s    3  1.00
       13.0100000000         0.0196850000
        1.9620000000         0.1379770000
        0.4446000000         0.4781480000
 s    1  1.00
        0.1220000000         1.0000000000
 p    1  1.00
        0.7270000000         1.0000000000

  5 0
 s    3  1.00
       13.0100000000         0.0196850000
        1.9620000000         0.1379770000
        0.4446000000         0.4781480000
 s    1  1.00
        0.1220000000         1.0000000000
 p    1  1.00
        0.7270000000         1.0000000000

  6 0
 s    8  1.00
     6665.0000000000         0.0006920000
     1000.0000000000         0.0053290000
      228.0000000000         0.0270770000
       64.7100000000         0.1017180000
       21.0600000000         0.2747400000
        7.4950000000         0.4485640000
        2.7970000000         0.2850740000
        0.5215000000         0.0152040000
 s    8  1.00
     6665.0000000000        -0.0001460000
     1000.0000000000        -0.0011540000
      228.0000000000        -0.0057250000
       64.7100000000        -0.0233120000
       21.0600000000        -0.0639550000
        7.4950000000        -0.1499810000
        2.7970000000        -0.1272620000
        0.5215000000         0.5445290000
 s    1  1.00
        0.1596000000         1.0000000000
 p    3  1.00
        9.4390000000         0.0381090000
        2.0020000000         0.2094800000
        0.5456000000         0.5085570000
 p    1  1.00
        0.1517000000         1.0000000000
 d    1  1.00
        0.5500000000         1.0000000000

  7 0
 s    3  1.00
       13.0100000000         0.0196850000
        1.9620000000         0.1379770000
        0.4446000000         0.4781480000
 s    1  1.00
        0.1220000000         1.0000000000
 p    1  1.00
        0.7270000000         1.0000000000

  8 0
 s    3  1.00
       13.0100000000         0.0196850000
        1.9620000000         0.1379770000
        0.4446000000         0.4781480000
 s    1  1.00
        0.1220000000         1.0000000000
 p    1  1.00
        0.7270000000         1.0000000000

[5D7F]
[9G]

[MO]
 Sym= A
 Ene=        -1.1238725627e+01
 Spin= Alpha
 Occup=         1.0000000000e+00
  1         7.4616060704e-02
  2        -8.4141755876e-05
  3         7.0359943968e-04
  4         6.0373607309e-05
  5         1.3866193809e-05
  6        -3.3485267646e-05
  7        -4.1848267008e-05
  8        -9.9368533530e-06
  9         3.6093897475e-05
 10        -2.8934298599e-04
 11        -9.2828475984e-05
 12         1.2631546139e-06
 13        -3.4026025654e-04
 14        -1.5198490583e-04
 15         7.1071254865e-01
 16         3.7986226736e-03
 17        -4.6686690875e-03
 18         4.0819839155e-05
 19         6.3666814867e-06
 20         1.0072063341e-04
 21        -2.4053050202e-04
 22        -4.9647761413e-05
 23        -9.6614490874e-05
 24         1.1100045146e-04
 25         4.6912196600e-05
 26         3.6472686546e-07
 27         1.9015904339e-04
 28         8.5060515446e-05
 29         5.5966594538e-05
 30         2.6232949012e-04
 31        -1.5689708994e-04
 32        -3.5971918877e-05
 33         8.3769227484e-05
 34        -3.2111462671e-04
 35         1.1019314369e-03
 36         4.1104740427e-04
 37         8.3662621461e-05
 38         2.1379828505e-04
 39        -3.6929263090e-04
 40         8.6156329807e-04
 41        -3.7621709802e-04
 42        -8.6768839775e-05
 43         2.2238543274e-04
 44         7.0274800596e-01
 45         3.7530962364e-03
 46        -4.5939777502e-03
 47        -5.7161091684e-05
 48        -1.0149371698e-05
 49        -9.0923805659e-05
 50        -4.9477354184e-05
 51        -1.7126121534e-05
 52         2.6384410867e-04
 53         1.5722385794e-04
 54         1.0824838422e-05
 55        -8.7402972238e-06
 56         1.6538381729e-04
 57         7.4799333623e-05
 58        -3.1849442170e-04
 59         1.0933226013e-03
 60         5.9823554766e-05
 61         2.4197062027e-05
 62        -4.6149636873e-04
 63        -3.6762840476e-04
 64         8.5136195269e-04
 65        -3.8957125169e-04
 66        -8.8792959269e-05
 67         1.8667407585e-04
 Sym= A
 Ene=        -1.1238691349e+01
 Spin= Alpha
 Occup=         1.0000000000e+00
  1        -4.2149058255e-04
  2         4.7816843441e-07
  3        -3.9275027335e-06
  4        -8.5796444807e-05
  5        -1.4507495119e-05
  6        -1.6567824551e-04
  7         9.8416224195e-04
  8         1.6620220065e-04
  9         1.9096439326e-03
 10        -1.4252976567e-04
 11         1.1316966331e-04
 12         2.8406133871e-05
 13         7.8935855633e-05
 14         3.2752021085e-05
 15         7.0491436361e-01
 16         4.0296976704e-03
 17        -6.6192802409e-03
 18        -1.4949589044e-05
 19        -5.6996411439e-06
 20         1.0113569748e-04
 21         6.0927720973e-05
 22        -1.2157786538e-05
 23         1.0382687617e-03
 24        -2.3479778089e-05
 25         1.5992024650e-05
 26         3.9491826071e-06
 27         1.8793872629e-05
 28         8.0966191877e-06
 29        -3.1616108827e-07
 30        -1.4763601666e-06
 31        -1.2698450537e-05
 32        -2.0914443307e-06
 33        -2.6832247614e-05
 34        -2.3067065641e-04
 35         7.5987292906e-04
 36         3.8310908844e-04
 37         7.8612467938e-05
 38         1.7318748856e-04
 39        -1.4585662200e-04
 40         9.0268250289e-04
 41        -3.7669802212e-04
 42        -8.4740914211e-05
 43         1.3503798829e-04
 44        -7.1285444331e-01
 45        -4.0721056095e-03
 46         6.6712897483e-03
 47         9.0821135194e-05
 48         1.8524046831e-05
 49         4.5904249781e-05
 50         8.0461608222e-04
 51         1.5839686993e-04
 52         6.3766621388e-04
 53        -2.7261948661e-05
 54         2.2134215029e-05
 55         5.7973004460e-06
 56         5.5090483231e-06
 57         1.8950186026e-06
 58         2.3425477236e-04
 59        -7.7220631267e-04
 60        -7.8318027657e-05
 61        -2.7303974069e-05
 62         4.2495651059e-04
 63         1.4999416974e-04
 64        -9.1230048486e-04
 65         3.2733888067e-04
 66         7.6672827676e-05
 67        -2.4148609401e-04
 Sym= A
 Ene=        -1.1227710183e+01
 Spin= Alpha
 Occup=         1.0000000000e+00
  1         9.9901437951e-01
  2         3.3762296892e-03
  3        -8.2515923702e-03
  4         1.0331300678e-04
  5         2.3710935822e-05
  6        -5.5300156699e-05
  7         8.8270019041e-04
  8         2.0234196296e-04
  9        -4.7234626234e-04
 10         5.3117579969e-04
 11         6.5895318078e-05
 12        -2.8723447125e-05
 13         7.6522839266e-04
 14         3.4563424988e-04
 15        -5.3370627569e-02
 16        -6.5329848446e-04
 17         2.2002497053e-03
 18         1.0459031562e-05
 19         6.8337508765e-08
 20         9.0031162419e-05
 21        -3.1506908519e-04
 22        -4.3646017333e-05
 23        -1.0029817604e-03
 24        -2.4467656019e-04
 25         9.1889450897e-05
 26         3.7449766409e-05
 27        -2.6934546228e-04
 28        -1.2474822173e-04
 29        -3.9721829235e-04
 30         9.5486278214e-04
 31         4.1799601046e-04
 32         9.5853204082e-05
 33        -2.2368847078e-04
 34         9.9314512714e-05
 35         1.9915038553e-04
 36        -1.0997832398e-04
 37        -2.1264939063e-05
 38        -1.0309170685e-04
 39         9.8835012343e-05
 40         6.9642586823e-06
 41         1.6688057237e-04
 42         3.8790046299e-05
 43        -1.1105824876e-04
 44        -5.3373951165e-02
 45        -6.5332778737e-04
 46         2.2003059327e-03
 47        -6.6784307963e-05
 48        -1.2972974663e-05
 49        -5.9893740938e-05
 50         6.3124183171e-04
 51         1.1614480671e-04
 52         8.3380638382e-04
 53        -9.1102007688e-05
 54        -2.8123102546e-05
 55         7.1944688795e-06
 56        -3.5140617842e-04
 57        -1.5872583112e-04
 58         9.9317517073e-05
 59         1.9914941430e-04
 60         2.0824532789e-05
 61         8.2249617273e-07
 62         1.5080430790e-04
 63         9.8837533817e-05
 64         6.9661644803e-06
 65         1.8445368275e-04
 66         4.1761753896e-05
 67        -7.6952366356e-05
 Sym= A
 Ene=        -1.0703823548e+00
 Spin= Alpha
 Occup=         1.0000000000e+00
  1         2.4327067377e-02
  2        -2.7379855697e-01
  3        -1.9323023422e-01
  4         5.8330144400e-02
  5         1.3371910473e-02
  6        -3.1212933921e-02
  7         4.4965690696e-02
  8         1.0309518743e-02
  9        -2.4062987543e-02
 10        -1.8510997517e-02
 11        -1.2793808801e-02
 12        -1.6378465292e-03
 13        -1.3022275563e-02
 14        -5.5707953367e-03
 15         1.4002884013e-02
 16        -2.3582867354e-01
 17        -1.3681554627e-01
 18         8.1316729910e-03
 19        -3.4321528131e-04
 20         8.6127626778e-02
 21        -1.6271256709e-02
 22        -3.7123702038e-03
 23         7.9535350014e-03
 24        -1.0182563158e-02
 25        -2.3629905752e-03
 26        -3.0531304607e-04
 27         8.3705653973e-03
 28         3.8594099412e-03
 29        -1.0048060554e-01
 30        -1.7536965003e-02
 31         1.3106154661e-02
 32         3.0052215907e-03
 33        -7.0135689943e-03
 34        -7.6737255820e-02
 35         4.2291268632e-03
 36         1.0491740167e-02
 37         2.0497905587e-03
 38         8.9671570214e-03
 39        -8.7975618706e-02
 40        -8.6077555973e-03
 41        -1.1646462839e-02
 42        -2.7355285479e-03
 43         8.9110852791e-03
 44         1.4003074280e-02
 45        -2.3583024583e-01
 46        -1.3681626810e-01
 47        -6.4949438242e-02
 48        -1.2683344150e-02
 49        -5.5723296219e-02
 50        -1.5662796503e-02
 51        -3.6097878009e-03
 52         9.1352885759e-03
 53         3.5297328467e-03
 54        -1.3078331322e-02
 55        -3.0086398914e-03
 56         1.0437975203e-03
 57         8.2504979597e-04
 58        -7.6737506559e-02
 59         4.2290067462e-03
 60        -1.2859650918e-03
 61         6.1048573804e-05
 62        -1.3893576110e-02
 63        -8.7975568074e-02
 64        -8.6080507525e-03
 65        -1.3810068201e-02
 66        -3.1010745613e-03
 67         4.7113643475e-03
 Sym= A
 Ene=        -9.4162844974e-01
 Spin= Alpha
 Occup=         1.0000000000e+00
  1         1.2055392344e-08
  2        -4.7793616691e-07
  3         5.1514255452e-07
  4         9.5044265844e-02
  5         1.6048908253e-02
  6         1.8448325779e-01
  7         2.7062920624e-02
  8         4.5698195627e-03
  9         5.2530635243e-02
 10         1.7463285896e-02
 11        -1.3646443379e-02
 12        -3.4423148087e-03
 13        -9.3308220116e-03
 14        -3.8643363505e-03
 15        -1.7253810081e-02
 16         2.8531541949e-01
 17         2.2271993432e-01
 18         1.7837625428e-02
 19         4.1695570189e-03
 20        -1.2816673811e-02
 21        -2.4705871850e-03
 22        -5.0462938333e-04
 23        -1.2121463447e-03
 24         1.0243381535e-04
 25        -4.1528022122e-03
 26        -7.2281562531e-04
 27        -6.7356002257e-03
 28        -2.9453089644e-03
 29        -1.2773835935e-07
 30         8.4187342947e-08
 31         1.8342037125e-03
 32         3.0971679222e-04
 33         3.5601621901e-03
 34         1.4463325649e-01
 35         1.4462036879e-02
 36        -1.7955148417e-02
 37        -3.6263781574e-03
 38        -1.0490677441e-02
 39         1.2425537987e-01
 40         8.9510215811e-03
 41         1.5471894321e-02
 42         3.5766826485e-03
 43        -9.4866256721e-03
 44         1.7253796335e-02
 45        -2.8531337706e-01
 46        -2.2271807444e-01
 47        -2.0480200594e-02
 48        -4.6154204181e-03
 49         7.6884139595e-03
 50         4.2340318703e-04
 51         1.5889236937e-04
 52        -2.7615154590e-03
 53         7.7008505708e-03
 54        -1.9450466027e-03
 55        -8.1562809905e-04
 56         2.5659163132e-03
 57         1.2184422526e-03
 58        -1.4463219904e-01
 59        -1.4462311354e-02
 60         1.7209045231e-03
 61         8.8511503525e-04
 62        -2.1019995341e-02
 63        -1.2425413191e-01
 64        -8.9510036673e-03
 65        -1.6446665234e-02
 66        -3.7414839723e-03
 67         7.5939865231e-03
 Sym= A
 Ene=        -7.5682583647e-01
 Spin= Alpha
 Occup=         1.0000000000e+00
  1         1.2469638587e-02
  2        -2.4317893897e-01
  3        -1.6881057751e-01
  4        -1.0958507668e-01
  5        -2.5128034618e-02
  6         5.8644139905e-02
  7        -3.1964004339e-02
  8        -7.3289314915e-03
  9         1.7104773833e-02
 10        -6.3489850974e-04
 11         4.2780875798e-03
 12         1.1295444244e-03
 13        -6.5779171742e-03
 14        -3.1001306266e-03
 15        -7.7487800452e-03
 16         1.3305018409e-01
 17         1.2438625096e-01
 18        -4.8450201921e-02
 19        -1.5042124473e-02
 20         1.8715980751e-01
 21        -2.3609886612e-02
 22        -6.7292445864e-03
 23         6.6567627298e-02
 24        -1.7068031880e-02
 25         3.8675784910e-03
 26         1.5365975150e-03
 27         8.3600000182e-04
 28         2.7173274475e-04
 29        -2.4665407194e-01
 30        -5.5500056905e-02
 31         2.1336948606e-02
 32         4.8926251209e-03
 33        -1.1418190615e-02
 34         1.1477092829e-01
 35         2.7511161784e-02
 36        -1.2683057915e-02
 37        -2.6594260868e-03
 38        -3.3997906798e-03
 39         1.7091251254e-01
 40         3.2772740569e-02
 41         1.7052995909e-02
 42         3.8483635695e-03
 43        -6.6107440650e-03
 44        -7.7488997049e-03
 45         1.3305072656e-01
 46         1.2438637068e-01
 47        -1.7868045923e-01
 48        -3.7033236572e-02
 49        -6.5617362980e-02
 50        -6.7172579087e-02
 51        -1.4085239033e-02
 52        -1.7987157289e-02
 53         4.0010118588e-03
 54        -1.2596466885e-02
 55        -2.6167632225e-03
 56        -1.0421342818e-02
 57        -4.3905819146e-03
 58         1.1477305844e-01
 59         2.7511848608e-02
 60        -4.4550321644e-03
 61        -1.2700932716e-03
 62         1.2571219128e-02
 63         1.7091483773e-01
 64         3.2773102778e-02
 65         1.5021922664e-02
 66         3.5057027563e-03
 67        -1.0553542042e-02
 Sym= A
 Ene=        -6.4839050562e-01
 Spin= Alpha
 Occup=         1.0000000000e+00
  1        -8.8746627837e-04
  2         4.9760701591e-02
  3         4.7902948998e-02
  4        -2.1913538284e-01
  5        -5.0244069486e-02
  6         1.1726275517e-01
  7        -8.6551991350e-02
  8        -1.9844775480e-02
  9         4.6315451418e-02
 10        -1.5080283441e-03
 11        -3.6821393652e-03
 12        -7.9669667027e-04
 13         2.3708567515e-03
 14         1.1737360527e-03
 15         4.7324887606e-03
 16        -1.8692359906e-02
 17        -4.9919938091e-02
 18        -2.2781598523e-01
 19        -4.5337858041e-02
 20        -1.6074086817e-01
 21        -8.6912769015e-02
 22        -1.7555258863e-02
 23        -5.0724115962e-02
 24         1.0043489538e-02
 25        -9.8783142272e-04
 26        -5.5967065868e-04
 27        -2.9339635041e-03
 28        -1.3026902942e-03
 29        -1.7340881163e-01
 30        -4.7957170394e-02
 31         1.0595095616e-02
 32         2.4295926356e-03
 33        -5.6699581965e-03
 34        -2.2643838846e-01
 35        -6.4199620180e-02
 36         1.5156116427e-02
 37         3.0744589004e-03
 38         8.3057119384e-03
 39         7.2879077915e-02
 40         1.6944969905e-02
 41         7.1556829396e-04
 42         3.3495828683e-04
 43        -7.3908219823e-03
 44         4.7326042691e-03
 45        -1.8692168497e-02
 46        -4.9921075016e-02
 47         4.9480629209e-04
 48        -6.7859397342e-03
 49         2.8239291351e-01
 50        -8.3729233469e-03
 51        -4.2932160818e-03
 52         1.0171624455e-01
 53        -2.8415084354e-03
 54         9.0814580528e-03
 55         1.9801506778e-03
 56         3.9506408820e-03
 57         1.5485931960e-03
 58        -2.2643622473e-01
 59        -6.4199071293e-02
 60         1.8967345667e-03
 61         8.3551012209e-04
 62        -1.7431102556e-02
 63         7.2868897727e-02
 64         1.6942286350e-02
 65         6.3751595653e-03
 66         1.2906705671e-03
 67         3.5964983022e-03
 Sym= A
 Ene=        -5.9800135639e-01
 Spin= Alpha
 Occup=         1.0000000000e+00
  1        -4.9146590897e-08
  2         2.0833700731e-06
  3         2.7188070485e-06
  4         1.3157216429e-01
  5         2.2216003290e-02
  6         2.5539275769e-01
  7         4.3265805828e-02
  8         7.3053850943e-03
  9         8.3983849619e-02
 10         3.1866141291e-03
 11        -2.4903754796e-03
 12        -6.2794718545e-04
 13        -1.7026156278e-03
 14        -7.0487373788e-04
 15         4.0309838085e-03
 16        -3.8437958894e-04
 17        -2.1365101739e-02
 18         1.9857363966e-01
 19         4.9127331290e-02
 20        -2.5387229984e-01
 21         7.9576647909e-02
 22         1.9761329929e-02
 23        -1.0477085182e-01
 24         1.3647289485e-02
 25         3.4484901359e-03
 26         2.9881568509e-04
 27        -4.8157129608e-03
 28        -2.2744937491e-03
 29        -1.5369021122e-06
 30        -3.6703372399e-07
 31         2.6729068173e-03
 32         4.5131980040e-04
 33         5.1879262139e-03
 34         3.0399076329e-02
 35         9.7457709037e-03
 36         2.1563155843e-03
 37         6.4363752168e-04
 38        -7.2740990129e-03
 39        -2.4680430440e-01
 40        -7.7476047596e-02
 41        -1.6715328232e-02
 42        -3.7761514232e-03
 43         6.6415899843e-03
 44        -4.0307285568e-03
 45         3.8245960704e-04
 46         2.1362004099e-02
 47        -3.1779580136e-01
 48        -6.9262092766e-02
 49         2.2466833175e-02
 50        -1.2980390912e-01
 51        -2.8243995650e-02
 52         7.2810325996e-03
 53         4.3530006446e-04
 54        -1.4452878519e-02
 55        -3.0746309284e-03
 56        -2.7087102899e-03
 57        -8.4144570726e-04
 58        -3.0407906064e-02
 59        -9.7489327483e-03
 60        -7.0995657713e-03
 61        -1.4784078596e-03
 62        -2.3215534803e-03
 63         2.4680684274e-01
 64         7.7477152562e-02
 65         1.4855180127e-02
 66         3.4623245549e-03
 67        -1.0252280757e-02
 Sym= A
 Ene=        -5.3844374978e-01
 Spin= Alpha
 Occup=         1.0000000000e+00
  1        -1.4609268013e-07
  2         1.1945761143e-07
  3         2.2010327130e-06
  4         1.1226234551e-01
  5         1.8957506444e-02
  6         2.1787431803e-01
  7         2.7953475238e-02
  8         4.7205941342e-03
  9         5.4249618796e-02
 10         2.1895115019e-02
 11        -1.7111596133e-02
 12        -4.3167025564e-03
 13        -1.1698721728e-02
 14        -4.8452145966e-03
 15         5.7440844052e-04
 16         3.6068879078e-02
 17         5.3827972743e-02
 18        -2.3823586702e-01
 19        -4.5952402995e-02
 20        -2.2788420589e-01
 21        -1.0546588552e-01
 22        -2.0117309878e-02
 23        -1.1013437888e-01
 24         1.0209338597e-02
 25        -1.9338961142e-02
 26        -4.4608767956e-03
 27        -5.8722408659e-03
 28        -2.1443702393e-03
 29         1.4101882442e-05
 30         6.9502739918e-06
 31         4.1256034932e-03
 32         6.9661591817e-04
 33         8.0094579745e-03
 34        -2.6323167535e-01
 35        -1.0581150442e-01
 36         1.3239906071e-02
 37         2.6685706869e-03
 38         7.9603624688e-03
 39         1.0198346589e-01
 40         4.3334567151e-02
 41         1.1061466454e-03
 42         4.9759282122e-04
 43        -1.0594496246e-02
 44        -5.7441990487e-04
 45        -3.6072969461e-02
 46        -5.3832893974e-02
 47        -4.8818069508e-02
 48        -2.5173034433e-03
 49        -3.2925378007e-01
 50        -2.9082550425e-02
 51        -2.6012449049e-03
 52        -1.5101245549e-01
 53         1.9843094502e-02
 54        -4.1477384311e-03
 55        -1.4639925995e-03
 56        -1.0184883782e-02
 57        -4.5059015002e-03
 58         2.6322369494e-01
 59         1.0580784556e-01
 60        -1.0880600139e-03
 61        -6.1659861540e-04
 62         1.5627121147e-02
 63        -1.0196664821e-01
 64        -4.3327006314e-02
 65        -9.1844039816e-03
 66        -1.8616595760e-03
 67        -5.0875680272e-03
 Sym= A
 Ene=        -5.0741750879e-01
 Spin= Alpha
 Occup=         1.0000000000e+00
  1         2.5415813109e-03
  2         7.1050385651e-03
  3        -7.0804638585e-03
  4        -2.6741178297e-01
  5        -6.1317378206e-02
  6         1.4311423261e-01
  7        -1.0025160419e-01
  8        -2.2987657636e-02
  9         5.3651904740e-02
 10         2.0948662774e-02
 11         3.4272473674e-02
 12         6.8285540183e-03
 13        -1.0994958233e-02
 14        -5.9033293534e-03
 15         1.0038873330e-03
 16         3.9782278190e-02
 17         4.5373816031e-02
 18         1.8995646037e-01
 19         4.4915452113e-02
 20        -1.5779875680e-01
 21         8.4276441958e-02
 22         1.9824581892e-02
 23        -6.5855594708e-02
 24         5.9494355799e-03
 25         2.9744741888e-02
 26         6.3291561736e-03
 27        -5.2536139430e-03
 28        -3.1794995745e-03
 29        -3.1806051397e-01
 30        -1.6509799519e-01
 31         1.3593273544e-02
 32         3.1169006819e-03
 33        -7.2738565186e-03
 34         1.0716995895e-01
 35         5.0940849692e-02
 36        -1.9883331567e-05
 37         2.2501431006e-04
 38        -9.4082804360e-03
 39        -2.0984258486e-01
 40        -1.0650671887e-01
 41        -6.9850761738e-03
 42        -1.6647643817e-03
 43         6.3259273190e-03
 44         1.0038296523e-03
 45         3.9779516228e-02
 46         4.5368480925e-02
 47         2.3530009721e-01
 48         5.2575717551e-02
 49        -6.9800182392e-02
 50         1.0103802141e-01
 51         2.2656728993e-02
 52        -3.3328063880e-02
 53         2.1104049141e-02
 54         1.7903599102e-02
 55         3.3410846663e-03
 56        -1.3350725016e-02
 57        -6.5338624960e-03
 58         1.0719163000e-01
 59         5.0950418340e-02
 60         7.5877309627e-03
 61         1.5096699179e-03
 62         5.3596231066e-03
 63        -2.0985042140e-01
 64        -1.0651025888e-01
 65        -9.0759999618e-03
 66        -2.0179500731e-03
 67         2.2679690982e-03
 Sym= A
 Ene=        -4.5640435448e-01
 Spin= Alpha
 Occup=         1.0000000000e+00
  1         1.7004404159e-07
  2        -2.2667493352e-06
  3        -3.0542388908e-06
  4        -5.3033832560e-02
  5         2.4525321975e-01
  6         5.9878328655e-03
  7        -2.6725393340e-02
  8         1.2358744223e-01
  9         3.0176188245e-03
 10         3.4341538461e-04
 11        -2.1285027328e-03
 12         8.0463983112e-03
 13         6.7687321628e-03
 14        -1.4442097084e-02
 15         1.2758954769e-07
 16         6.3860557232e-07
 17        -5.6886366871e-07
 18        -7.5980555112e-02
 19         3.5142112510e-01
 20         8.5693538471e-03
 21        -5.5319787733e-02
 22         2.5586069701e-01
 23         6.2403619403e-03
 24        -7.9547409761e-04
 25         4.0834280265e-03
 26        -1.8814826676e-02
 27        -6.6799228786e-04
 28         3.6063840683e-04
 29        -4.9969981641e-06
 30        -2.8121205442e-06
 31        -1.9634674588e-03
 32         9.0809354817e-03
 33         2.2158616287e-04
 34         2.2482316042e-06
 35         8.2652067996e-07
 36        -2.3337146283e-03
 37         1.0793121583e-02
 38         2.6311134365e-04
 39        -3.3544846611e-06
 40        -1.9242198347e-06
 41        -2.4210011498e-03
 42         1.1196482130e-02
 43         2.7318011401e-04
 44         1.2796603671e-07
 45         2.0902003419e-06
 46         2.4058533244e-06
 47        -7.5980371001e-02
 48         3.5141901034e-01
 49         8.5778998859e-03
 50        -5.5320381723e-02
 51         2.5585875709e-01
 52         6.2446277534e-03
 53         4.3507561591e-04
 54        -1.8458410762e-03
 55         1.0361217901e-02
 56        -6.4441264414e-03
 57         1.4812451741e-02
 58         2.7321465812e-07
 59        -3.2900901310e-08
 60        -2.3335622296e-03
 61         1.0793052980e-02
 62         2.6341038915e-04
 63        -2.9302207947e-06
 64        -1.6714891568e-06
 65        -2.4210603342e-03
 66         1.1196396028e-02
 67         2.7338252856e-04
 Sym= A
 Ene=        -3.3462213173e-01
 Spin= Alpha
 Occup=         1.0000000000e+00
  1         3.7680611779e-08
  2         4.6484826496e-07
  3         2.3332541706e-07
  4        -2.3837661635e-07
  5        -2.9750353307e-06
  6         5.2106627091e-07
  7         8.9956774924e-08
  8        -2.0415882635e-06
  9         3.6132383861e-07
 10         1.5772816105e-03
 11        -7.5993622238e-03
 12         3.7396596162e-02
 13        -7.4033796437e-03
 14         1.8523765999e-02
 15         3.0210383764e-08
 16         4.9242190912e-07
 17         5.1736342576e-07
 18        -9.1467701509e-02
 19         4.2303157199e-01
 20         1.0317274024e-02
 21        -8.1541302818e-02
 22         3.7712213739e-01
 23         9.1982023577e-03
 24        -1.7265417633e-04
 25         9.2999864772e-04
 26        -4.0745712897e-03
 27        -9.1913705112e-04
 28         1.7847203093e-03
 29        -1.1656240705e-06
 30        -1.0428082976e-06
 31         3.6635942120e-08
 32        -9.8154928333e-08
 33        -2.7729980720e-08
 34        -1.4766104597e-07
 35        -1.9479736215e-07
 36        -3.0968277154e-03
 37         1.4322750745e-02
 38         3.4930765097e-04
 39         3.7770710717e-07
 40        -5.0649033537e-07
 41        -2.8867516072e-03
 42         1.3351405694e-02
 43         3.2561528940e-04
 44        -6.7508015409e-08
 45        -1.4948858497e-06
 46        -2.9064636446e-06
 47         9.1467038538e-02
 48        -4.2303038201e-01
 49        -1.0326412832e-02
 50         8.1540507953e-02
 51        -3.7712072109e-01
 52        -9.2054652837e-03
 53        -3.0780167240e-05
 54         5.1235211826e-05
 55        -7.5360974189e-04
 56         1.8750809508e-03
 57        -4.1764139581e-03
 58         1.4119822944e-06
 59         9.2182280158e-07
 60         3.0968097595e-03
 61        -1.4322665747e-02
 62        -3.4950047365e-04
 63         4.7181736131e-07
 64        -4.4159267501e-08
 65         2.8868480767e-03
 66        -1.3351326832e-02
 67        -3.2594958776e-04
 Sym= A
 Ene=         1.9797345902e-01
 Spin= Alpha
 Occup=         0.0000000000e+00
  1         2.4429216381e-02
  2        -1.0891483387e-02
  3        -7.4188839184e-01
  4        -1.1686828660e-01
  5        -2.6801164583e-02
  6         6.2541228810e-02
  7        -4.7161737756e-01
  8        -1.0815223797e-01
  9         2.5238789356e-01
 10        -3.0489717690e-03
 11         6.8587687603e-04
 12         4.3263118519e-04
 13        -5.7752187861e-03
 14        -2.6406122028e-03
 15         4.0335033108e-02
 16        -5.9380352857e-02
 17        -1.1941827352e+00
 18        -2.6295965260e-02
 19        -3.1592465651e-03