[Molden Format]
[Atoms] AU
   C     1    6      0.0443354354    -1.3516131421     0.0000000000
   H     2    1     -0.9527861749    -2.0742596135     1.6639827988
   H     3    1      1.9598053130    -2.1894583098     0.0000000000
   N     4    7     -0.0499051885     1.4060731556     0.0000000000
   H     5    1     -0.9527861749    -2.0742596135    -1.6639827988
   H     6    1      0.5892055727     2.2539590565    -1.5897735638
   H     7    1      0.5892055727     2.2539590565     1.5897735638
[GTO]
    1  0
  s      6  0
      3047.5249000000         0.0018347000
       457.3695100000         0.0140373000
       103.9486900000         0.0688426000
        29.2101550000         0.2321844000
         9.2866630000         0.4679413000
         3.1639270000         0.3623120000
  s      3  0
         7.8682724000        -0.1193324000
         1.8812885000        -0.1608542000
         0.5442493000         1.1434564000
  p      3  0
         7.8682724000         0.0689991000
         1.8812885000         0.3164240000
         0.5442493000         0.7443083000
  s      1  0
         0.1687144000         1.0000000000
  p      1  0
         0.1687144000         1.0000000000

    2  0
  s      3  0
        18.7311370000         0.0334946000
         2.8253937000         0.2347269500
         0.6401217000         0.8137573300
  s      1  0
         0.1612778000         1.0000000000

    3  0
  s      3  0
        18.7311370000         0.0334946000
         2.8253937000         0.2347269500
         0.6401217000         0.8137573300
  s      1  0
         0.1612778000         1.0000000000

    4  0
  s      6  0
      4173.5110000000         0.0018348000
       627.4579000000         0.0139950000
       142.9021000000         0.0685870000
        40.2343300000         0.2322410000
        12.8202100000         0.4690700000
         4.3904370000         0.3604550000
  s      3  0
        11.6263580000        -0.1149610000
         2.7162800000        -0.1691180000
         0.7722180000         1.1458520000
  p      3  0
        11.6263580000         0.0675800000
         2.7162800000         0.3239070000
         0.7722180000         0.7408950000
  s      1  0
         0.2120313000         1.0000000000
  p      1  0
         0.2120313000         1.0000000000

    5  0
  s      3  0
        18.7311370000         0.0334946000
         2.8253937000         0.2347269500
         0.6401217000         0.8137573300
  s      1  0
         0.1612778000         1.0000000000

    6  0
  s      3  0
        18.7311370000         0.0334946000
         2.8253937000         0.2347269500
         0.6401217000         0.8137573300
  s      1  0
         0.1612778000         1.0000000000

    7  0
  s      3  0
        18.7311370000         0.0334946000
         2.8253937000         0.2347269500
         0.6401217000         0.8137573300
  s      1  0
         0.1612778000         1.0000000000

[MO]
Sym= a'   
Ene=  -0.14295370673783E+02
Spin= Alpha
Occup=       2.00000000000000
     1   -0.0000113574064818
     2   -0.0011254948694100
     3    0.0000776645921964
     4   -0.0001016811032010
     5   -0.0000000000000000
     6    0.0078633874580666
     7   -0.0000393626222433
     8    0.0038018897925405
     9    0.0000000000000000
    10   -0.0003799962188198
    11   -0.0003651569689632
    12   -0.0004617028898741
    13   -0.0001131260464182
    14    0.9952311368486325
    15    0.0315807809183614
    16    0.0016202480756575
    17   -0.0004110562240195
    18   -0.0000000000000000
    19   -0.0214607544723509
    20   -0.0020567487941835
    21    0.0026604405614708
    22    0.0000000000000000
    23   -0.0003799962188198
    24   -0.0003651569689632
    25   -0.0002029984652597
    26    0.0035117103805856
    27   -0.0002029984652597
    28    0.0035117103805855
Sym= a'   
Ene=  -0.10193917716750E+02
Spin= Alpha
Occup=       2.00000000000000
     1    0.9952739042752486
     2    0.0361971252540956
     3   -0.0000513851405533
     4   -0.0000837174700631
     5    0.0000000000000001
     6   -0.0299490652637497
     7    0.0004866371744930
     8    0.0000845950303741
     9   -0.0000000000000001
    10   -0.0005672023166810
    11    0.0059490808723633
    12   -0.0006090718792730
    13    0.0056049054724150
    14    0.0000156634025662
    15   -0.0006909006540165
    16    0.0000191816847224
    17    0.0007176663793553
    18    0.0000000000000002
    19    0.0044500833933868
    20   -0.0001490812923301
    21   -0.0026315827131420
    22    0.0000000000000001
    23   -0.0005672023166810
    24    0.0059490808723630
    25   -0.0001386894313971
    26    0.0007711329362839
    27   -0.0001386894313969
    28    0.0007711329362839
Sym= a'   
Ene=  -0.86467350277277E+00
Spin= Alpha
Occup=       2.00000000000000
     1   -0.0993796989890155
     2    0.1940122745503338
     3    0.0009192719184906
     4    0.0966936534002444
     5   -0.0000000000000000
     6    0.1107707781552362
     7    0.0025058487748474
     8   -0.0081589697239911
     9    0.0000000000000001
    10    0.0423624911512497
    11    0.0050350584781051
    12    0.0407741784980514
    13    0.0002408471636482
    14   -0.1857349989614385
    15    0.3867357442764353
    16    0.0770063664663563
    17   -0.0379110960351048
    18   -0.0000000000000001
    19    0.3931884865234521
    20    0.0387450955972214
    21   -0.0219105215695800
    22   -0.0000000000000001
    23    0.0423624911512497
    24    0.0050350584781052
    25    0.1228021588640286
    26    0.0086608352400321
    27    0.1228021588640284
    28    0.0086608352400327
Sym= a'   
Ene=  -0.65894698408599E+00
Spin= Alpha
Occup=       2.00000000000000
     1   -0.1700195305838053
     2    0.3371253941450492
     3   -0.0150467865309505
     4   -0.0809374364418565
     5    0.0000000000000000
     6    0.3387464204251523
     7    0.0102468945038573
     8   -0.0251744565882084
     9   -0.0000000000000004
    10    0.1360235182100580
    11    0.0438548413427758
    12    0.1263670252595221
    13    0.0309504939026689
    14    0.0773710494973286
    15   -0.1642527142731026
    16   -0.0667694924621552
    17   -0.1724360671449799
    18    0.0000000000000000
    19   -0.2129171132686526
    20   -0.0349470174416106
    21   -0.0559874822241103
    22    0.0000000000000004
    23    0.1360235182100582
    24    0.0438548413427748
    25   -0.1097308206204733
    26   -0.0318599317674244
    27   -0.1097308206204734
    28   -0.0318599317674251
Sym= a"   
Ene=  -0.49118476863836E+00
Spin= Alpha
Occup=       2.00000000000000
     1   -0.0000000000000003
     2    0.0000000000000008
     3   -0.0000000000000038
     4   -0.0000000000000039
     5    0.2176675675650306
     6   -0.0000000000000036
     7   -0.0000000000000023
     8   -0.0000000000000025
     9    0.1058914648454757
    10    0.0920542070092254
    11    0.0501521540225857
    12   -0.0000000000000011
    13   -0.0000000000000003
    14    0.0000000000000002
    15   -0.0000000000000005
    16    0.0000000000000010
    17    0.0000000000000045
    18    0.4268202263035313
    19   -0.0000000000000004
    20    0.0000000000000009
    21    0.0000000000000004
    22    0.1937764510419217
    23   -0.0920542070092203
    24   -0.0501521540225822
    25   -0.2159474711340843
    26   -0.1269486861417692
    27    0.2159474711340866
    28    0.1269486861417733
Sym= a'   
Ene=  -0.43229262935907E+00
Spin= Alpha
Occup=       2.00000000000000
     1    0.0059626694295500
     2   -0.0025188947474584
     3   -0.2041037072800486
     4    0.3474707140155175
     5    0.0000000000000012
     6   -0.0315111040992289
     7   -0.0679061077653680
     8    0.1239503405370897
     9    0.0000000000000006
    10   -0.0219019086951470
    11   -0.0119631061564025
    12   -0.1965667364964979
    13   -0.1641908494056368
    14   -0.0246650548055643
    15    0.0587429813056967
    16   -0.1422121356711641
    17   -0.3648944150851111
    18    0.0000000000000023
    19    0.0821175404863351
    20   -0.0841165313526985
    21   -0.1810356614894061
    22    0.0000000000000011
    23   -0.0219019086951480
    24   -0.0119631061564031
    25   -0.1074580583483549
    26   -0.0766615292717963
    27   -0.1074580583483525
    28   -0.0766615292717949
Sym= a'   
Ene=  -0.40281093953256E+00
Spin= Alpha
Occup=       2.00000000000000
     1   -0.0053766151845480
     2    0.0138445026870771
     3    0.3888554079458908
     4    0.1920986641701045
     5    0.0000000000000025
     6   -0.0019381131227095
     7    0.1791797435893094
     8    0.0732339502491561
     9    0.0000000000000012
    10   -0.1575098461238480
    11   -0.1264525949806660
    12    0.1840134510027762
    13    0.1530564156463741
    14    0.0050317919549995
    15   -0.0136557965534756
    16    0.1131527965750610
    17   -0.2281944450973366
    18    0.0000000000000049
    19    0.0075716595927118
    20    0.0722178796160305
    21   -0.1301437962199360
    22    0.0000000000000022
    23   -0.1575098461238501
    24   -0.1264525949806672
    25   -0.0579987953916189
    26   -0.0454853232618559
    27   -0.0579987953916139
    28   -0.0454853232618530
Sym= a"   
Ene=  -0.36796510628455E+00
Spin= Alpha
Occup=       2.00000000000000
     1    0.0000000000000002
     2    0.0000000000000002
     3    0.0000000000000003
     4   -0.0000000000000001
     5    0.4059605564702062
     6   -0.0000000000000039
     7    0.0000000000000004
     8    0.0000000000000006
     9    0.1837685226849495
    10    0.2293380826740898
    11    0.2040189811018762
    12    0.0000000000000002
    13    0.0000000000000018
    14   -0.0000000000000001
    15    0.0000000000000003
    16   -0.0000000000000011
    17    0.0000000000000002
    18   -0.2259835985358041
    19   -0.0000000000000003
    20   -0.0000000000000012
    21   -0.0000000000000009
    22   -0.1163990623937219
    23   -0.2293380826740895
    24   -0.2040189811018739
    25    0.1473273435555162
    26    0.1157096599284801
    27   -0.1473273435555160
    28   -0.1157096599284790
Sym= a'   
Ene=  -0.20592862546167E+00
Spin= Alpha
Occup=       2.00000000000000
     1   -0.0083064427748226
     2    0.0233074451964104
     3   -0.1218737027577747
     4    0.0416041129459920
     5    0.0000000000000001
     6   -0.0237470871400481
     7   -0.0206548938529579
     8   -0.0122064524060934
     9    0.0000000000000002
    10    0.0725501759712443
    11    0.0942399038370984
    12   -0.1511801522006145
    13   -0.2229460050561416
    14    0.0467758708989610
    15   -0.1110670809446201
    16    0.5516718948326830
    17   -0.1030333538118004
    18   -0.0000000000000016
    19   -0.1568584153063572
    20    0.4922562091010485
    21   -0.1180506362383499
    22   -0.0000000000000009
    23    0.0725501759712440
    24    0.0942399038370982
    25    0.0385475563311441
    26    0.0365978056323215
    27    0.0385475563311424
    28    0.0365978056323207
Sym= a'   
Ene=   0.87886854641033E-01
Spin= Alpha
Occup=       0.00000000000000
     1   -0.0368637910486116
     2    0.0369019290417536
     3    0.0016772914733982
     4   -0.1790456007073165
     5    0.0000000000000002
     6    0.7240232035866203
     7   -0.1120607106334808
     8   -0.5374790745412829
     9   -0.0000000000000006
    10   -0.0116167259670443
    11   -0.4723246656761177
    12   -0.0034949235852917
    13   -0.4003653944327389
    14   -0.1100802200357208
    15    0.1698995221062807
    16    0.1310141910747097
    17    0.0901256380319141
    18   -0.0000000000000004
    19    1.5371120792287987
    20    0.3138742462411203
    21    0.2256727292915198
    22   -0.0000000000000014
    23   -0.0116167259670441
    24   -0.4723246656761210
    25   -0.0669719597190027
    26   -0.9803445082956541
    27   -0.0669719597190034
    28   -0.9803445082956496
Sym= a'   
Ene=   0.13643321957509E+00
Spin= Alpha
Occup=       0.00000000000000
     1   -0.1529887390175576
     2    0.1818636282972592
     3    0.0201700122072858
     4   -0.0702286266258560
     5    0.0000000000000011
     6    2.4747934438645127
     7    0.0230528824840351
     8   -0.1337334701170184
     9    0.0000000000000072
    10   -0.0251690509097538
    11   -1.0380494657223327
    12   -0.0275224116734476
    13   -1.1061252702278981
    14    0.0647446095710192
    15   -0.0779460732572792
    16   -0.0780419578531320
    17    0.0343268235490568
    18   -0.0000000000000022
    19   -0.9932679661397863
    20   -0.1569582551836778
    21    0.2230138876764624
    22   -0.0000000000000074
    23   -0.0251690509097538
    24   -1.0380494657223203
    25    0.0462249241251966
    26    0.4286091891047380
    27    0.0462249241251966
    28    0.4286091891047548
Sym= a"   
Ene=   0.15024816931679E+00
Spin= Alpha
Occup=       0.00000000000000
     1    0.0000000000000004
     2   -0.0000000000000005
     3   -0.0000000000000000
     4    0.0000000000000004
     5   -0.2920987268468603
     6   -0.0000000000000062
     7    0.0000000000000001
     8    0.0000000000000011
     9   -0.7387494922408407
    10    0.0746814673856869
    11    0.9657850821579023
    12    0.0000000000000000
    13    0.0000000000000029
    14    0.0000000000000001
    15   -0.0000000000000003
    16   -0.0000000000000001
    17   -0.0000000000000002
    18   -0.2895037742069506
    19   -0.0000000000000005
    20   -0.0000000000000002
    21   -0.0000000000000008
    22   -0.6718423248227043
    23   -0.0746814673856868
    24   -0.9657850821578967
    25   -0.0787200541893417
    26   -1.0475567642179306
    27    0.0787200541893416
    28    1.0475567642179320
Sym= a'   
Ene=   0.17971664682375E+00
Spin= Alpha
Occup=       0.00000000000000
     1    0.0006959642404630
     2    0.0050418211840699
     3   -0.4470246246594857
     4   -0.0169495356697749
     5    0.0000000000000052
     6    0.0274151249601670
     7   -1.3479599026577482
     8   -0.1014867813371301
     9    0.0000000000000216
    10   -0.0457666459727066
    11   -0.9414978851139232
    12    0.0872725503237919
    13    1.6884950457432359
    14    0.0062073873179215
    15   -0.0159298175139579
    16    0.0576770324740450
    17   -0.0768639080836874
    18   -0.0000000000000056
    19   -0.0644306665738058
    20    0.2625922694633503
    21   -0.1000228037577745
    22   -0.0000000000000165
    23   -0.0457666459727043
    24   -0.9414978851138792
    25    0.0163967661812944
    26    0.1102151946976451
    27    0.0163967661812950
    28    0.1102151946976813
Sym= a"   
Ene=   0.19197465878574E+00
Spin= Alpha
Occup=       0.00000000000000
     1    0.0000000000000010
     2   -0.0000000000000012
     3    0.0000000000000079
     4    0.0000000000000007
     5    0.2889556616036394
     6   -0.0000000000000157
     7    0.0000000000000241
     8    0.0000000000000028
     9    1.2144632424733832
    10   -0.0739129907493586
    11   -1.2136264593771344
    12   -0.0000000000000013
    13   -0.0000000000000234
    14   -0.0000000000000004
    15    0.0000000000000006
    16   -0.0000000000000007
    17    0.0000000000000011
    18   -0.2936892571217689
    19    0.0000000000000067
    20   -0.0000000000000039
    21    0.0000000000000004
    22   -0.9177184917544482
    23    0.0739129907493606
    24    1.2136264593771815
    25   -0.0191925970334891
    26   -1.0096888178192998
    27    0.0191925970334878
    28    1.0096888178192909
Sym= a'   
Ene=   0.24201457516384E+00
Spin= Alpha
Occup=       0.00000000000000
     1   -0.0633676471572470
     2    0.0683479622673922
     3   -0.0365007319503934
     4    0.3117201034106562
     5    0.0000000000000002
     6    1.0766431064538460
     7   -0.2644022576863583
     8    1.7120755041609297
     9    0.0000000000000003
    10    0.0656098868865833
    11    0.0787331167844838
    12    0.0497001385785913
    13    0.4937776159551114
    14    0.0494810634042053
    15   -0.0601246607341028
    16    0.0679376926980779
    17    0.4196409624731662
    18    0.0000000000000001
    19   -0.8623433103901667
    20    0.1877213109744648
    21    1.3916136598069613
    22   -0.0000000000000000
    23    0.0656098868865832
    24    0.0787331167844844
    25   -0.0333526678899614
    26   -0.6296740389212206
    27   -0.0333526678899613
    28   -0.6296740389212206
Sym= a'   
Ene=   0.57103080553732E+00
Spin= Alpha
Occup=       0.00000000000000
     1    0.0350233877929584
     2   -0.3257050540081300
     3   -0.1370742906765431
     4   -1.0587043432208054
     5    0.0000000000000090
     6    0.0744131866220302
     7    0.2912713212691972
     8    1.4693493751292752
     9   -0.0000000000000192
    10    0.1280482581779048
    11    0.1960597413389676
    12    0.0578830562123287
    13    0.0723056795727772
    14   -0.0342516977736506
    15    0.1764252987131766
    16    0.0328870731371812
    17   -0.0856801835321871
    18   -0.0000000000000002
    19   -0.6929894263203141
    20   -0.0976118027094179
    21   -0.0572851452931306
    22    0.0000000000000006
    23    0.1280482581778954
    24    0.1960597413389596
    25    0.0137251466823562
    26   -0.0572377850277259
    27    0.0137251466823616
    28   -0.0572377850277248
Sym= a"   
Ene=   0.57351534542630E+00
Spin= Alpha
Occup=       0.00000000000000
     1    0.0000000000000005
     2   -0.0000000000000039
     3   -0.0000000000000017
     4   -0.0000000000000122
     5   -0.7730530402712658
     6    0.0000000000000002
     7    0.0000000000000028
     8    0.0000000000000170
     9    1.6388690142527893
    10   -0.4138804311367980
    11   -0.3329581963697739
    12    0.0000000000000007
    13    0.0000000000000018
    14   -0.0000000000000004
    15    0.0000000000000020
    16    0.0000000000000003
    17   -0.0000000000000011
    18    0.0321432742300719
    19   -0.0000000000000082
    20   -0.0000000000000011
    21   -0.0000000000000008
    22   -0.0741357882335348
    23    0.4138804311368010
    24    0.3329581963697782
    25    0.2365389897876315
    26    0.0047297457471311
    27   -0.2365389897876312
    28   -0.0047297457471320
Sym= a'   
Ene=   0.60713689236513E+00
Spin= Alpha
Occup=       0.00000000000000
     1   -0.0057363917771324
     2    0.0085910451516296
     3   -0.7380003204482326
     4    0.1325583872394153
     5    0.0000000000000002
     6   -0.0854623132980803
     7    1.7323611193944906
     8   -0.3496737965785949
     9   -0.0000000000000005
    10    0.1948731841805659
    11    0.2308492619101017
    12   -0.4945853007049928
    13   -0.5531272453704228
    14   -0.0155797558320942
    15    0.0392292518330854
    16   -0.3131433187790716
    17    0.1472936246587892
    18   -0.0000000000000002
    19    0.2908176863203173
    20   -0.0515407947087108
    21   -0.1573295910327958
    22    0.0000000000000005
    23    0.1948731841805663
    24    0.2308492619101009
    25   -0.0941104268406919
    26    0.0050828686761031
    27   -0.0941104268406922
    28    0.0050828686761029
Sym= a'   
Ene=   0.76101568225421E+00
Spin= Alpha
Occup=       0.00000000000000
     1    0.0148648438496580
     2   -0.0916940987346726
     3   -0.3163333997712925
     4    0.0487463844092803
     5    0.0000000000000001
     6    0.7425262868513557
     7    0.9060447887296045
     8    0.1502105254921540
     9    0.0000000000000002
    10    0.0267633523736456
    11    0.1294254665672000
    12   -0.0092398218022280
    13   -0.5223814261019614
    14   -0.0069241044073561
    15    0.0552512985147739
    16    0.7988724320942977
    17   -0.4269190486837677
    18   -0.0000000000000000
    19   -0.2397488675477615
    20   -0.9390867128436974
    21    0.9042185376957795
    22   -0.0000000000000000
    23    0.0267633523736456
    24    0.1294254665672001
    25   -0.3075469508343555
    26    0.0982334028032653
    27   -0.3075469508343555
    28    0.0982334028032653
Sym= a'   
Ene=   0.80115902978957E+00
Spin= Alpha
Occup=       0.00000000000000
     1    0.0338449706818721
     2   -0.1802395753333128
     3    0.4010070549090780
     4   -0.0438452371576281
     5   -0.0000000000000001
     6    0.9788688628847663
     7   -1.0012169005162896
     8    0.5761676206111460
     9   -0.0000000000000005
    10    0.2361682207287024
    11   -0.4223587381223514
    12   -0.1382181078887968
    13    0.6767776577016087
    14   -0.0396142282579520
    15    0.1374694912561521
    16   -0.4495447170197285
    17   -0.5853801698057528
    18    0.0000000000000000
    19   -0.0749598382616353
    20    0.9470168164858632
    21    1.4798259407352585
    22    0.0000000000000002
    23    0.2361682207287023
    24   -0.4223587381223524
    25   -0.4664707416677094
    26   -0.2440907246686433
    27   -0.4664707416677094
    28   -0.2440907246686436
Sym= a"   
Ene=   0.82494142235404E+00
Spin= Alpha
Occup=       0.00000000000000
     1    0.0000000000000000
     2   -0.0000000000000000
     3   -0.0000000000000003
     4   -0.0000000000000001
     5   -0.6735891567894861
     6   -0.0000000000000007
     7    0.0000000000000011
     8   -0.0000000000000003
     9    1.6245897522310622
    10    0.4478935203872805
    11   -1.1683634093450479
    12   -0.0000000000000002
    13   -0.0000000000000003
    14   -0.0000000000000001
    15    0.0000000000000001
    16    0.0000000000000000
    17    0.0000000000000000
    18    0.4418203458739899
    19    0.0000000000000009
    20   -0.0000000000000001
    21   -0.0000000000000002
    22   -1.5197736478761863
    23   -0.4478935203872804
    24    1.1683634093450488
    25   -0.4979173201855371
    26   -0.2129380757639483
    27    0.4979173201855370
    28    0.2129380757639475
Sym= a'   
Ene=   0.88380103520563E+00
Spin= Alpha
Occup=       0.00000000000000
     1   -0.0633138130689572
     2    0.2262809826955693
     3    0.3860727987052140
     4   -0.2454649182093352
     5   -0.0000000000000009
     6   -0.5136283162090192
     7   -0.6862365731971253
     8   -0.2114575919660227
     9    0.0000000000000006
    10   -0.3067890617827580
    11   -0.1376879945891338
    12   -0.8511806234175666
    13    1.0389806017777614
    14   -0.0273155744844339
    15   -0.0551806668906362
    16    0.1834408615827212
    17    0.4590562861404375
    18   -0.0000000000000009
    19    0.2508911829831905
    20    0.0072028423762161
    21   -0.5538345681895447
    22    0.0000000000000023
    23   -0.3067890617827601
    24   -0.1376879945891306
    25   -0.5061031000349472
    26    0.4154997094154103
    27   -0.5061031000349480
    28    0.4154997094154085
Sym= a"   
Ene=   0.94554345546064E+00
Spin= Alpha
Occup=       0.00000000000000
     1    0.0000000000000000
     2   -0.0000000000000002
     3   -0.0000000000000002
     4   -0.0000000000000001
     5   -0.2729565620971900
     6    0.0000000000000005
     7    0.0000000000000006
     8    0.0000000000000005
     9    0.3196485327439382
    10    0.1127405456731201
    11   -0.3285205619988011
    12    0.0000000000000006
    13   -0.0000000000000009
    14   -0.0000000000000000
    15    0.0000000000000002
    16   -0.0000000000000001
    17   -0.0000000000000003
    18   -0.9779407506546905
    19   -0.0000000000000002
    20   -0.0000000000000000
    21    0.0000000000000005
    22    1.3383705590933095
    23   -0.1127405456731196
    24    0.3285205619988015
    25   -0.5460717837088112
    26    1.2790977044541427
    27    0.5460717837088118
    28   -1.2790977044541436
Sym= a'   
Ene=   0.95388689421913E+00
Spin= Alpha
Occup=       0.00000000000000
     1    0.0161644767412328
     2   -0.1169481125616826
     3    0.5512290228773966
     4    0.0602962983907153
     5    0.0000000000000015
     6    0.0464370828615192
     7   -0.3512020169484854
     8   -0.0936297981231511
     9    0.0000000000000006
    10    0.5927048582580086
    11   -0.6741857433828943
    12   -0.7510992360464432
    13    1.0072789978150249
    14    0.0348138103644252
    15   -0.2106634524863487
    16    0.1857855937235590
    17   -0.1265353116979386
    18    0.0000000000000005
    19    0.1282927455317953
    20   -0.4833300771344718
    21   -0.1800880680065955
    22   -0.0000000000000040
    23    0.5927048582580133
    24   -0.6741857433828984
    25    0.4577079811013093
    26   -0.1734070461617030
    27    0.4577079811013136
    28   -0.1734070461617027
Sym= a'   
Ene=   0.98188935730799E+00
Spin= Alpha
Occup=       0.00000000000000
     1    0.0393965575638448
     2   -1.0717856460313679
     3    0.1395953597041592
     4    0.3343171540470540
     5   -0.0000000000000031
     6    1.6681384258147978
     7   -0.2552801211239039
     8   -0.8086244062942384
     9   -0.0000000000000012
    10    0.4661555033593466
    11   -0.9808849745015985
    12    0.3796470481421536
    13   -0.6403170791836081
    14   -0.0398448253922729
    15    0.4664839418964697
    16    0.1576542671462103
    17    0.5387652885885371
    18   -0.0000000000000013
    19   -0.7646856996519560
    20   -0.2013066883466301
    21   -0.9594904781629346
    22    0.0000000000000085
    23    0.4661555033593369
    24   -0.9808849745015893
    25   -0.3486852621996109
    26    0.7765666612009101
    27   -0.3486852621996195
    28    0.7765666612009086
Sym= a"   
Ene=   0.10117820873971E+01
Spin= Alpha
Occup=       0.00000000000000
     1   -0.0000000000000001
     2    0.0000000000000063
     3    0.0000000000000003
     4   -0.0000000000000017
     5   -0.4530812172547911
     6   -0.0000000000000111
     7    0.0000000000000020
     8    0.0000000000000051
     9   -0.1034699341595872
    10    0.7360147647337123
    11   -0.7521664104694674
    12   -0.0000000000000039
    13    0.0000000000000060
    14    0.0000000000000004
    15   -0.0000000000000037
    16   -0.0000000000000006
    17   -0.0000000000000045
    18   -0.1418628561183305
    19    0.0000000000000052
    20   -0.0000000000000005
    21    0.0000000000000059
    22    1.1449575378918864
    23   -0.7360147647337139
    24    0.7521664104694774
    25    0.6411858232026448
    26   -0.0151441076081417
    27   -0.6411858232026360
    28    0.0151441076081297
Sym= a'   
Ene=   0.10956894035656E+01
Spin= Alpha
Occup=       0.00000000000000
     1   -0.0549268110170183
     2   -1.8629328422915876
     3   -0.0747550984149535
     4    0.0101208115637647
     5   -0.0000000000000002
     6    4.2292522115937476
     7   -0.0434905546543116
     8   -0.2051947481449979
     9    0.0000000000000023
    10   -0.2994986810173815
    11   -0.8002647105638637
    12   -0.1450360879499390
    13   -0.9409153298367686
    14    0.0375211486450258
    15   -0.9899728433506692
    16   -0.0983163652471736
    17   -0.0884245852895397
    18    0.0000000000000002
    19    1.0468527687615152
    20    0.2939056686623704
    21    0.7061344584124186
    22   -0.0000000000000007
    23   -0.2994986810173824
    24   -0.8002647105638597
    25    0.0567257843141238
    26   -0.6866428773304235
    27    0.0567257843141243
    28   -0.6866428773304231
Sym= a'   
Ene=   0.14781088831697E+01
Spin= Alpha
Occup=       0.00000000000000
     1   -0.0933331654777351
     2   -1.1012120268760317
     3    0.0186847670726514
     4    0.1397120090363664
     5    0.0000000000000003
     6    4.4845227472690370
     7   -0.0668303388724027
     8    1.0599017153668824
     9   -0.0000000000000008
    10   -0.4140406690001167
    11   -0.4453034685561020
    12   -0.4480907979505616
    13   -0.3343030895620305
    14    0.0255142053353428
    15    1.6987212285429405
    16    0.0117197069008559
    17   -0.2030049491019002
    18    0.0000000000000002
    19   -4.3052881447482267
    20   -0.3139451489619853
    21    1.3648774351132427
    22   -0.0000000000000002
    23   -0.4140406690001158
    24   -0.4453034685561046
    25    0.3844998132352344
    26    0.2314827788393786
    27    0.3844998132352348
    28    0.2314827788393789
