 argument  1 = job.nw
                                         
                                         


             Northwest Computational Chemistry Package (NWChem) 7.2.3
             --------------------------------------------------------


                    Environmental Molecular Sciences Laboratory
                       Pacific Northwest National Laboratory
                                Richland, WA 99352

                              Copyright (c) 1994-2022
                       Pacific Northwest National Laboratory
                            Battelle Memorial Institute

             NWChem is an open-source computational chemistry package
                        distributed under the terms of the
                      Educational Community License (ECL) 2.0
             A copy of the license is included with this distribution
                              in the LICENSE.TXT file

                                  ACKNOWLEDGMENT
                                  --------------

            This software and its documentation were developed at the
            EMSL at Pacific Northwest National Laboratory, a multiprogram
            national laboratory, operated for the U.S. Department of Energy
            by Battelle under Contract Number DE-AC05-76RL01830. Support
            for this work was provided by the Department of Energy Office
            of Biological and Environmental Research, Office of Basic
            Energy Sciences, and the Office of Advanced Scientific Computing.


           Job information
           ---------------

    hostname        = Tobiass-MBP.fritz.box
    program         = nwchem
    date            = Fri Apr 10 14:31:13 2026

    compiled        = Tue_Sep_16_16:48:38_2025
    source          = /private/tmp/nwchem-20250916-8472-x3pwf0/nwchem-7.2.3
    nwchem branch   = 7.2.3
    nwchem revision = d690e065
    ga revision     = 5.8.0
    use scalapack   = T
    input           = job.nw
    prefix          = job.
    data base       = .//job.db
    status          = startup
    nproc           =        8
    time left       =     -1s



           Memory information
           ------------------

    heap     =  327679996 doubles =   2500.0 Mbytes
    stack    =  327680001 doubles =   2500.0 Mbytes
    global   =  655360000 doubles =   5000.0 Mbytes (distinct from heap & stack)
    total    = 1310719997 doubles =  10000.0 Mbytes
    verify   = yes
    hardfail = no 


           Directory information
           ---------------------

  0 permanent = ./
  0 scratch   = ./scr




                                NWChem Input Module
                                -------------------


                       methylamine opt, freq, and properties
                       -------------------------------------

 Scaling coordinates for geometry "geometry" by  1.889725989
 (inverse scale =  0.529177249)

 CS  symmetry detected

          ------
          auto-z
          ------
  no constraints, skipping    0.0000000000000000     
  no constraints, skipping    0.0000000000000000     


                             Geometry "geometry" -> ""
                             -------------------------

 Output coordinates in angstroms (scale by  1.889725989 to convert to a.u.)

  No.       Tag          Charge          X              Y              Z
 ---- ---------------- ---------- -------------- -------------- --------------
    1 C                    6.0000    -0.01259354    -0.70958992     0.00000000
    2 H                    1.0000    -0.50391267    -1.10190706     0.88916490
    3 H                    1.0000     1.03354460    -1.01210446     0.00000000
    4 N                    7.0000    -0.09772869     0.74792607     0.00000000
    5 H                    1.0000    -0.50391267    -1.10190706    -0.88916490
    6 H                    1.0000     0.36697140     1.11898781    -0.84099168
    7 H                    1.0000     0.36697140     1.11898781     0.84099168

      Atomic Mass 
      ----------- 

      C                 12.000000
      H                  1.007825
      N                 14.003070


 Effective nuclear repulsion energy (a.u.)      42.0276962050

            Nuclear Dipole moment (a.u.) 
            ----------------------------
        X                 Y               Z
 ---------------- ---------------- ----------------
     0.0000000000    -0.0000000000     0.0000000000

      Symmetry information
      --------------------

 Group name             Cs        
 Group number              2
 Group order               2
 No. of unique centers     5

      Symmetry unique atoms

     1    2    3    4    6



                                Z-matrix (autoz)
                                -------- 

 Units are Angstrom for bonds and degrees for angles

      Type          Name      I     J     K     L     M      Value
      ----------- --------  ----- ----- ----- ----- ----- ----------
    1 Stretch                  1     2                       1.08900
    2 Stretch                  1     3                       1.08900
    3 Stretch                  1     4                       1.46000
    4 Stretch                  1     5                       1.08900
    5 Stretch                  4     6                       1.03000
    6 Stretch                  4     7                       1.03000
    7 Bend                     1     4     6               109.47119
    8 Bend                     1     4     7               109.47119
    9 Bend                     2     1     3               109.47118
   10 Bend                     2     1     4               109.47121
   11 Bend                     2     1     5               109.47121
   12 Bend                     3     1     4               109.47134
   13 Bend                     3     1     5               109.47118
   14 Bend                     4     1     5               109.47121
   15 Bend                     6     4     7               109.47126
   16 Torsion                  2     1     4     6        -180.00000
   17 Torsion                  2     1     4     7          60.00000
   18 Torsion                  3     1     4     6          60.00001
   19 Torsion                  3     1     4     7         -60.00001
   20 Torsion                  5     1     4     6         -60.00000
   21 Torsion                  5     1     4     7         180.00000


            XYZ format geometry
            -------------------
     7
 geometry
 C                    -0.01259354    -0.70958992     0.00000000
 H                    -0.50391267    -1.10190706     0.88916490
 H                     1.03354460    -1.01210446     0.00000000
 N                    -0.09772869     0.74792607     0.00000000
 H                    -0.50391267    -1.10190706    -0.88916490
 H                     0.36697140     1.11898781    -0.84099168
 H                     0.36697140     1.11898781     0.84099168

 ==============================================================================
                                internuclear distances
 ------------------------------------------------------------------------------
       center one      |      center two      | atomic units |  angstroms
 ------------------------------------------------------------------------------
    2 H                |   1 C                |     2.05791  |     1.08900
    3 H                |   1 C                |     2.05791  |     1.08900
    4 N                |   1 C                |     2.75900  |     1.46000
    5 H                |   1 C                |     2.05791  |     1.08900
    6 H                |   4 N                |     1.94642  |     1.03000
    7 H                |   4 N                |     1.94642  |     1.03000
 ------------------------------------------------------------------------------
                         number of included internuclear distances:          6
 ==============================================================================



 ==============================================================================
                                 internuclear angles
 ------------------------------------------------------------------------------
        center 1       |       center 2       |       center 3       |  degrees
 ------------------------------------------------------------------------------
    2 H                |   1 C                |   3 H                |   109.47
    2 H                |   1 C                |   4 N                |   109.47
    2 H                |   1 C                |   5 H                |   109.47
    3 H                |   1 C                |   4 N                |   109.47
    3 H                |   1 C                |   5 H                |   109.47
    4 N                |   1 C                |   5 H                |   109.47
    1 C                |   4 N                |   6 H                |   109.47
    1 C                |   4 N                |   7 H                |   109.47
    6 H                |   4 N                |   7 H                |   109.47
 ------------------------------------------------------------------------------
                            number of included internuclear angles:          9
 ==============================================================================



  library name resolved from: .nwchemrc
  library file name is: </opt/homebrew/Cellar/nwchem/7.2.3_1/share/nwchem/libraries/>
  


 Summary of "ao basis" -> "" (cartesian)
 ------------------------------------------------------------------------------
       Tag                 Description            Shells   Functions and Types
 ---------------- ------------------------------  ------  ---------------------
 *                           6-31G                    on all atoms 




                           NWChem Geometry Optimization
                           ----------------------------




                       methylamine opt, freq, and properties


  no constraints, skipping    0.0000000000000000     
 maximum gradient threshold         (gmax) =   0.000450
 rms gradient threshold             (grms) =   0.000300
 maximum cartesian step threshold   (xmax) =   0.001800
 rms cartesian step threshold       (xrms) =   0.001200
 fixed trust radius                (trust) =   0.300000
 maximum step size to saddle      (sadstp) =   0.100000
 energy precision                  (eprec) =   5.0D-06
 maximum number of steps          (nptopt) =  500
 initial hessian option           (inhess) =    0
 line search option               (linopt) =    1
 hessian update option            (modupd) =    1
 saddle point option              (modsad) =    0
 initial eigen-mode to follow     (moddir) =    0
 initial variable to follow       (vardir) =    0
 follow first negative mode     (firstneg) =    T
 apply conjugacy                    (opcg) =    F
 source of zmatrix                         =   autoz   


          -------------------
          Energy Minimization
          -------------------


 Names of Z-matrix variables 
    1              2              3              4              5         
    6              7              8              9             10         
   11             12             13             14             15         
   16             17             18             19             20         
   21         

 Variables with the same non-blank name are constrained to be equal


 Using diagonal initial Hessian 
 Scaling for Hessian diagonals: bonds = 1.00  angles = 0.25  torsions = 0.10

          --------
          Step   0
          --------


                         Geometry "geometry" -> "geometry"
                         ---------------------------------

 Output coordinates in angstroms (scale by  1.889725989 to convert to a.u.)

  No.       Tag          Charge          X              Y              Z
 ---- ---------------- ---------- -------------- -------------- --------------
    1 C                    6.0000    -0.01259354    -0.70958992     0.00000000
    2 H                    1.0000    -0.50391267    -1.10190706     0.88916490
    3 H                    1.0000     1.03354460    -1.01210446     0.00000000
    4 N                    7.0000    -0.09772869     0.74792607     0.00000000
    5 H                    1.0000    -0.50391267    -1.10190706    -0.88916490
    6 H                    1.0000     0.36697140     1.11898781    -0.84099168
    7 H                    1.0000     0.36697140     1.11898781     0.84099168

      Atomic Mass 
      ----------- 

      C                 12.000000
      H                  1.007825
      N                 14.003070


 Effective nuclear repulsion energy (a.u.)      42.0276962050

            Nuclear Dipole moment (a.u.) 
            ----------------------------
        X                 Y               Z
 ---------------- ---------------- ----------------
     0.0000000000    -0.0000000000     0.0000000000

      Symmetry information
      --------------------

 Group name             Cs        
 Group number              2
 Group order               2
 No. of unique centers     5

      Symmetry unique atoms

     1    2    3    4    6


                                 NWChem DFT Module
                                 -----------------


                       methylamine opt, freq, and properties


                      Basis "ao basis" -> "ao basis" (cartesian)
                      -----
  C (Carbon)
  ----------
            Exponent  Coefficients 
       -------------- ---------------------------------------------------------
  1 S  3.04752490E+03  0.001835
  1 S  4.57369510E+02  0.014037
  1 S  1.03948690E+02  0.068843
  1 S  2.92101550E+01  0.232184
  1 S  9.28666300E+00  0.467941
  1 S  3.16392700E+00  0.362312

  2 S  7.86827240E+00 -0.119332
  2 S  1.88128850E+00 -0.160854
  2 S  5.44249300E-01  1.143456

  3 P  7.86827240E+00  0.068999
  3 P  1.88128850E+00  0.316424
  3 P  5.44249300E-01  0.744308

  4 S  1.68714400E-01  1.000000

  5 P  1.68714400E-01  1.000000

  H (Hydrogen)
  ------------
            Exponent  Coefficients 
       -------------- ---------------------------------------------------------
  1 S  1.87311370E+01  0.033495
  1 S  2.82539370E+00  0.234727
  1 S  6.40121700E-01  0.813757

  2 S  1.61277800E-01  1.000000

  N (Nitrogen)
  ------------
            Exponent  Coefficients 
       -------------- ---------------------------------------------------------
  1 S  4.17351100E+03  0.001835
  1 S  6.27457900E+02  0.013995
  1 S  1.42902100E+02  0.068587
  1 S  4.02343300E+01  0.232241
  1 S  1.28202100E+01  0.469070
  1 S  4.39043700E+00  0.360455

  2 S  1.16263580E+01 -0.114961
  2 S  2.71628000E+00 -0.169118
  2 S  7.72218000E-01  1.145852

  3 P  1.16263580E+01  0.067580
  3 P  2.71628000E+00  0.323907
  3 P  7.72218000E-01  0.740895

  4 S  2.12031300E-01  1.000000

  5 P  2.12031300E-01  1.000000



 Summary of "ao basis" -> "ao basis" (cartesian)
 ------------------------------------------------------------------------------
       Tag                 Description            Shells   Functions and Types
 ---------------- ------------------------------  ------  ---------------------
 C                           6-31G                   5        9   3s2p
 H                           6-31G                   2        2   2s
 N                           6-31G                   5        9   3s2p




 Summary of "ao basis" -> "ao basis" (cartesian)
 ------------------------------------------------------------------------------
       Tag                 Description            Shells   Functions and Types
 ---------------- ------------------------------  ------  ---------------------
 C                           6-31G                   5        9   3s2p
 H                           6-31G                   2        2   2s
 N                           6-31G                   5        9   3s2p


      Symmetry analysis of basis
      --------------------------

        a'         20
        a"          8

  Caching 1-el integrals 

            General Information
            -------------------
          SCF calculation type: DFT
          Wavefunction type:  closed shell.
          No. of atoms     :     7
          No. of electrons :    18
           Alpha electrons :     9
            Beta electrons :     9
          Charge           :     0
          Spin multiplicity:     1
          Use of symmetry is: on ; symmetry adaption is: on 
          Maximum number of iterations: 500
          AO basis - number of functions:    28
                     number of shells:    20
          Convergence on energy requested:  1.00D-06
          Convergence on density requested:  1.00D-05
          Convergence on gradient requested:  5.00D-04

              XC Information
              --------------
                         B3LYP Method XC Potential
                     Hartree-Fock (Exact) Exchange  0.200          
                        Slater Exchange Functional  0.800 local    
                    Becke 1988 Exchange Functional  0.720 non-local
              Lee-Yang-Parr Correlation Functional  0.810          
                  VWN I RPA Correlation Functional  0.190 local    

             Grid Information
             ----------------
          Grid used for XC integration:  medium    
          Radial quadrature: Mura-Knowles        
          Angular quadrature: Lebedev. 
          Tag              B.-S. Rad. Rad. Pts. Rad. Cut. Ang. Pts.
          ---              ---------- --------- --------- ---------
          C                   0.70       49           7.0       434
          H                   0.35       45           8.0       434
          N                   0.65       49           7.0       434
          Grid pruning is: on 
          Number of quadrature shells:   233
          Spatial weights used:  Erf1

          Convergence Information
          -----------------------
          Convergence aids based upon iterative change in 
          total energy or number of iterations. 
          Levelshifting, if invoked, occurs when the 
          HOMO/LUMO gap drops below (HL_TOL):  1.00D-02
          DIIS, if invoked, will attempt to extrapolate 
          using up to (NFOCK): 10 stored Fock matrices.

                    Damping( 0%)  Levelshifting(0.5)       DIIS
                  --------------- ------------------- ---------------
          dE  on:    start            ASAP                start   
          dE off:    2 iters        500 iters           500 iters 


      Screening Tolerance Information
      -------------------------------
          Density screening/tol_rho:  1.00D-10
          AO Gaussian exp screening on grid/accAOfunc:  14
          CD Gaussian exp screening on grid/accCDfunc:  20
          XC Gaussian exp screening on grid/accXCfunc:  20
          Schwarz screening/accCoul:  1.00D-08


      Superposition of Atomic Density Guess
      -------------------------------------

 Sum of atomic energies:         -94.44515509

      Non-variational initial energy
      ------------------------------

 Total energy =     -95.599447
 1-e energy   =    -209.275369
 2-e energy   =      71.648226
 HOMO         =      -0.296845
 LUMO         =       0.122998


      Symmetry analysis of molecular orbitals - initial
      -------------------------------------------------

  Numbering of irreducible representations: 

     1 a'          2 a"      

  Orbital symmetries:

     1 a'          2 a'          3 a'          4 a'          5 a"      
     6 a'          7 a'          8 a"          9 a'         10 a'      
    11 a'         12 a"         13 a'         14 a"         15 a'      
    16 a'         17 a"         18 a'         19 a'      

  WARNING: movecs_in_org=atomic not equal to movecs_in=.//job.movecs
   Time after variat. SCF:      0.1

     ---------------------------------------------
      Total Density - Mulliken Population Analysis
     ---------------------------------------------

    Atom       Charge   Shell Charges
 -----------   ------   -------------------------------------------------------
    1 C    6     6.39   2.00  0.71  1.97  0.67  1.05
    2 H    1     0.80   0.49  0.31
    3 H    1     0.81   0.49  0.32
    4 N    7     7.98   2.00  0.82  2.56  0.87  1.73
    5 H    1     0.80   0.49  0.31
    6 H    1     0.61   0.43  0.18
    7 H    1     0.61   0.43  0.18
   Time prior to 1st pass:      0.1

 #quartets = 1.316D+04 #integrals = 4.577D+04 #direct =  0.0% #cached =100.0%


 Integral file          = ./scr/job.aoints.0
 Record size in doubles =  65536        No. of integs per rec  =  43688
 Max. records in memory =      3        Max. records in file   =  61907
 No. of bits per label  =      8        No. of bits per value  =     64


File balance: exchanges=     0  moved=     0  time=   0.0

  avail0,avail1,avail0-avail1                260654               260654                    0
  avail0,avail1,avail0-avail1                260654               260654                    0
  avail0,avail1,avail0-avail1                260654               260669                  -15
  avail0,avail1,avail0-avail1                260654               260669                  -15

 Grid_pts file          = ./scr/job.gridpts.0
 Record size in doubles =  12289        No. of grid_pts per rec  =   3070
 Max. records in memory =      6        Max. recs in file   =      5157


           Memory utilization after 1st SCF pass: 
           Heap Space remaining (MW):      327.41           327407628
          Stack Space remaining (MW):      327.68           327679652

   convergence    iter        energy       DeltaE   RMS-Dens  Diis-err    time
 ---------------- ----- ----------------- --------- --------- ---------  ------
 d= 0,ls=0.0,diis     1    -95.7930018879 -1.38D+02  2.09D-02  2.30D-01     0.2
 d= 0,ls=0.0,diis     2    -95.8089754490 -1.60D-02  9.51D-03  1.17D-01     0.2
 d= 0,ls=0.0,diis     3    -95.8191693701 -1.02D-02  3.04D-03  2.60D-02     0.2
 d= 0,ls=0.0,diis     4    -95.8219408810 -2.77D-03  3.07D-04  7.37D-05     0.2
 d= 0,ls=0.0,diis     5    -95.8219482981 -7.42D-06  1.15D-04  2.27D-05     0.2
  Resetting Diis
 d= 0,ls=0.0,diis     6    -95.8219512587 -2.96D-06  1.47D-05  8.60D-08     0.3
 d= 0,ls=0.0,diis     7    -95.8219512750 -1.64D-08  2.73D-06  7.39D-10     0.3


         Total DFT energy =      -95.821951275019
      One electron energy =     -211.555470413909
           Coulomb energy =       87.925754923234
    Exchange-Corr. energy =      -14.219931989325
 Nuclear repulsion energy =       42.027696204981

 Numeric. integr. density =       18.000000686853

     Total iterative time =      0.2s



                  Occupations of the irreducible representations
                  ----------------------------------------------

                     irrep           alpha         beta
                     --------     --------     --------
                     a'                7.0          7.0
                     a"                2.0          2.0


                       DFT Final Molecular Orbital Analysis
                       ------------------------------------

 Vector    1  Occ=2.000000D+00  E=-1.430183D+01  Symmetry=a'
              MO Center= -9.8D-02,  7.5D-01,  5.6D-19, r^2= 2.0D-02
   Bfn.  Coefficient  Atom+Function         Bfn.  Coefficient  Atom+Function  
  ----- ------------  ---------------      ----- ------------  ---------------
    14      0.995268  4 N  s                 15      0.031758  4 N  s          

 Vector    2  Occ=2.000000D+00  E=-1.019165D+01  Symmetry=a'
              MO Center= -1.3D-02, -7.1D-01,  7.0D-19, r^2= 2.8D-02
   Bfn.  Coefficient  Atom+Function         Bfn.  Coefficient  Atom+Function  
  ----- ------------  ---------------      ----- ------------  ---------------
     1      0.995260  1 C  s                  2      0.036481  1 C  s          
     6     -0.030545  1 C  s          

 Vector    3  Occ=2.000000D+00  E=-8.756471D-01  Symmetry=a'
              MO Center=  7.7D-02,  4.4D-01, -1.7D-15, r^2= 9.1D-01
   Bfn.  Coefficient  Atom+Function         Bfn.  Coefficient  Atom+Function  
  ----- ------------  ---------------      ----- ------------  ---------------
    19      0.394884  4 N  s                 15      0.376256  4 N  s          
     2      0.197972  1 C  s                 14     -0.182017  4 N  s          
    25      0.117620  6 H  s                 27      0.117620  7 H  s          
     6      0.109123  1 C  s                  1     -0.102262  1 C  s          
     4      0.099665  1 C  py                16      0.098104  4 N  px         

 Vector    4  Occ=2.000000D+00  E=-6.571692D-01  Symmetry=a'
              MO Center=  2.6D-02, -4.0D-01,  1.7D-16, r^2= 1.7D+00
   Bfn.  Coefficient  Atom+Function         Bfn.  Coefficient  Atom+Function  
  ----- ------------  ---------------      ----- ------------  ---------------
     6      0.352187  1 C  s                  2      0.334788  1 C  s          
    19     -0.236868  4 N  s                 15     -0.171857  4 N  s          
     1     -0.169695  1 C  s                 17     -0.153779  4 N  py         
    10      0.137529  2 H  s                 23      0.137529  5 H  s          
    12      0.129544  3 H  s                 25     -0.108218  6 H  s          

 Vector    5  Occ=2.000000D+00  E=-4.902949D-01  Symmetry=a"
              MO Center=  1.6D-02,  4.1D-01,  4.7D-15, r^2= 1.6D+00
   Bfn.  Coefficient  Atom+Function         Bfn.  Coefficient  Atom+Function  
  ----- ------------  ---------------      ----- ------------  ---------------
    18      0.407736  4 N  pz                 5      0.243811  1 C  pz         
    25     -0.207585  6 H  s                 27      0.207585  7 H  s          
    22      0.179159  4 N  pz                 9      0.129690  1 C  pz         
    26     -0.128707  6 H  s                 28      0.128707  7 H  s          
    10      0.104983  2 H  s                 23     -0.104983  5 H  s          

 Vector    6  Occ=2.000000D+00  E=-4.321737D-01  Symmetry=a'
              MO Center=  2.4D-01, -3.5D-01,  1.8D-15, r^2= 1.5D+00
   Bfn.  Coefficient  Atom+Function         Bfn.  Coefficient  Atom+Function  
  ----- ------------  ---------------      ----- ------------  ---------------
     3      0.341190  1 C  px                17      0.253034  4 N  py         
    12      0.245993  3 H  s                  4     -0.234030  1 C  py         
    13      0.208980  3 H  s                 16      0.188767  4 N  px         
     7      0.127182  1 C  px                21      0.113913  4 N  py         
    20      0.112177  4 N  px                19     -0.088157  4 N  s          

 Vector    7  Occ=2.000000D+00  E=-4.047280D-01  Symmetry=a'
              MO Center= -8.0D-02, -2.9D-01,  4.8D-15, r^2= 1.7D+00
   Bfn.  Coefficient  Atom+Function         Bfn.  Coefficient  Atom+Function  
  ----- ------------  ---------------      ----- ------------  ---------------
    17     -0.344693  4 N  py                 4      0.322317  1 C  py         
     3      0.275424  1 C  px                21     -0.179878  4 N  py         
    10     -0.155410  2 H  s                 23     -0.155410  5 H  s          
     7      0.137303  1 C  px                 8      0.133900  1 C  py         
    11     -0.123994  2 H  s                 24     -0.123994  5 H  s          

 Vector    8  Occ=2.000000D+00  E=-3.702563D-01  Symmetry=a"
              MO Center= -1.5D-01, -4.0D-01, -9.8D-15, r^2= 2.0D+00
   Bfn.  Coefficient  Atom+Function         Bfn.  Coefficient  Atom+Function  
  ----- ------------  ---------------      ----- ------------  ---------------
     5      0.391395  1 C  pz                18     -0.253891  4 N  pz         
    10      0.224933  2 H  s                 23     -0.224933  5 H  s          
    11      0.198860  2 H  s                 24     -0.198860  5 H  s          
     9      0.172895  1 C  pz                25      0.160248  6 H  s          
    27     -0.160248  7 H  s                 22     -0.130051  4 N  pz         

 Vector    9  Occ=2.000000D+00  E=-2.119036D-01  Symmetry=a'
              MO Center= -2.0D-01,  6.0D-01,  1.8D-16, r^2= 1.3D+00
   Bfn.  Coefficient  Atom+Function         Bfn.  Coefficient  Atom+Function  
  ----- ------------  ---------------      ----- ------------  ---------------
    16      0.526891  4 N  px                20      0.461271  4 N  px         
    19     -0.214188  4 N  s                 13     -0.212211  3 H  s          
    21     -0.159688  4 N  py                12     -0.150258  3 H  s          
    17     -0.150305  4 N  py                15     -0.143723  4 N  s          
     3     -0.132300  1 C  px                11      0.086464  2 H  s          

 Vector   10  Occ=0.000000D+00  E= 7.769330D-02  Symmetry=a'
              MO Center=  4.0D-01,  6.1D-01,  3.1D-15, r^2= 3.6D+00
   Bfn.  Coefficient  Atom+Function         Bfn.  Coefficient  Atom+Function  
  ----- ------------  ---------------      ----- ------------  ---------------
    19      1.440425  4 N  s                 26     -0.937998  6 H  s          
    28     -0.937998  7 H  s                  6      0.791112  1 C  s          
    13     -0.539088  3 H  s                  8     -0.510817  1 C  py         
    11     -0.433430  2 H  s                 24     -0.433430  5 H  s          
    20      0.386495  4 N  px                21      0.172600  4 N  py         

 Vector   11  Occ=0.000000D+00  E= 1.413207D-01  Symmetry=a'
              MO Center=  1.3D-02, -7.7D-01, -1.9D-14, r^2= 4.3D+00
   Bfn.  Coefficient  Atom+Function         Bfn.  Coefficient  Atom+Function  
  ----- ------------  ---------------      ----- ------------  ---------------
     6      2.504736  1 C  s                 11     -1.103311  2 H  s          
    24     -1.103311  5 H  s                 19     -1.070596  4 N  s          
    13     -0.998016  3 H  s                 26      0.489381  6 H  s          
    28      0.489381  7 H  s                 21      0.236688  4 N  py         
    20     -0.197389  4 N  px                 2      0.175505  1 C  s          

 Vector   12  Occ=0.000000D+00  E= 1.491314D-01  Symmetry=a"
              MO Center=  1.1D-01,  4.6D-01, -1.2D-15, r^2= 4.1D+00
   Bfn.  Coefficient  Atom+Function         Bfn.  Coefficient  Atom+Function  
  ----- ------------  ---------------      ----- ------------  ---------------
    26      1.147314  6 H  s                 28     -1.147314  7 H  s          
    11     -0.824231  2 H  s                 24      0.824231  5 H  s          
    22      0.755221  4 N  pz                 9      0.617171  1 C  pz         
    18      0.335744  4 N  pz                 5      0.252433  1 C  pz         
    25      0.085007  6 H  s                 27     -0.085007  7 H  s          

 Vector   13  Occ=0.000000D+00  E= 1.766146D-01  Symmetry=a'
              MO Center=  5.3D-01, -1.0D+00,  1.5D-14, r^2= 2.9D+00
   Bfn.  Coefficient  Atom+Function         Bfn.  Coefficient  Atom+Function  
  ----- ------------  ---------------      ----- ------------  ---------------
    13      1.823852  3 H  s                  7     -1.391982  1 C  px         
    11     -0.893900  2 H  s                 24     -0.893900  5 H  s          
     3     -0.432924  1 C  px                20      0.292310  4 N  px         
     8     -0.233100  1 C  py                19      0.199413  4 N  s          
     6     -0.177127  1 C  s                 21     -0.087965  4 N  py         

 Vector   14  Occ=0.000000D+00  E= 1.840410D-01  Symmetry=a"
              MO Center= -1.6D-01, -4.3D-01,  2.6D-15, r^2= 4.0D+00
   Bfn.  Coefficient  Atom+Function         Bfn.  Coefficient  Atom+Function  
  ----- ------------  ---------------      ----- ------------  ---------------
    11     -1.357597  2 H  s                 24      1.357597  5 H  s          
     9      1.319547  1 C  pz                22     -0.780913  4 N  pz         
    26     -0.781993  6 H  s                 28      0.781993  7 H  s          
     5      0.323710  1 C  pz                18     -0.254920  4 N  pz         
    10     -0.080554  2 H  s                 23      0.080554  5 H  s          

 Vector   15  Occ=0.000000D+00  E= 2.351082D-01  Symmetry=a'
              MO Center=  1.3D-03, -2.8D-01, -7.9D-16, r^2= 2.6D+00
   Bfn.  Coefficient  Atom+Function         Bfn.  Coefficient  Atom+Function  
  ----- ------------  ---------------      ----- ------------  ---------------
     8      1.634277  1 C  py                21      1.305792  4 N  py         
     6      1.051689  1 C  s                 19     -0.871954  4 N  s          
    26     -0.578941  6 H  s                 28     -0.578941  7 H  s          
    17      0.425176  4 N  py                13      0.353581  3 H  s          
     4      0.315245  1 C  py                 7     -0.270927  1 C  px         

 Vector   16  Occ=0.000000D+00  E= 5.661045D-01  Symmetry=a'
              MO Center= -9.1D-03, -7.0D-01, -1.3D-16, r^2= 2.0D+00
   Bfn.  Coefficient  Atom+Function         Bfn.  Coefficient  Atom+Function  
  ----- ------------  ---------------      ----- ------------  ---------------
     8      1.473761  1 C  py                 4     -1.050182  1 C  py         
    19     -0.695421  4 N  s                  2     -0.302768  1 C  s          
    11      0.187911  2 H  s                 24      0.187911  5 H  s          
    15      0.179012  4 N  s                  7      0.152653  1 C  px         
    20     -0.128371  4 N  px                10      0.127322  2 H  s          

 Vector   17  Occ=0.000000D+00  E= 5.809956D-01  Symmetry=a"
              MO Center=  2.3D-01, -5.3D-01, -7.4D-16, r^2= 2.2D+00
   Bfn.  Coefficient  Atom+Function         Bfn.  Coefficient  Atom+Function  
  ----- ------------  ---------------      ----- ------------  ---------------
     9      1.746435  1 C  pz                 5     -0.772438  1 C  pz         
    10     -0.418977  2 H  s                 23      0.418977  5 H  s          
    11     -0.407471  2 H  s                 24      0.407471  5 H  s          
    25      0.234272  6 H  s                 27     -0.234272  7 H  s          
    22     -0.113807  4 N  pz                18      0.047985  4 N  pz         

 Vector   18  Occ=0.000000D+00  E= 5.989443D-01  Symmetry=a'
              MO Center= -3.1D-01, -6.0D-01,  7.9D-16, r^2= 2.1D+00
   Bfn.  Coefficient  Atom+Function         Bfn.  Coefficient  Atom+Function  
  ----- ------------  ---------------      ----- ------------  ---------------
     7      1.858618  1 C  px                 3     -0.772752  1 C  px         
    13     -0.603294  3 H  s                 12     -0.472942  3 H  s          
    11      0.271688  2 H  s                 24      0.271688  5 H  s          
    10      0.224376  2 H  s                 23      0.224376  5 H  s          
    16     -0.213681  4 N  px                20     -0.149885  4 N  px         

 Vector   19  Occ=0.000000D+00  E= 7.508403D-01  Symmetry=a'
              MO Center= -2.7D-01,  1.0D+00, -3.5D-17, r^2= 1.5D+00
   Bfn.  Coefficient  Atom+Function         Bfn.  Coefficient  Atom+Function  
  ----- ------------  ---------------      ----- ------------  ---------------
    21      0.965942  4 N  py                20     -0.877013  4 N  px         
     6      0.828784  1 C  s                 16      0.796787  4 N  px         
     7      0.622101  1 C  px                17     -0.509815  4 N  py         
    19     -0.458556  4 N  s                  8      0.321554  1 C  py         
    13     -0.310717  3 H  s                 25     -0.296474  6 H  s          

 Vector   20  Occ=0.000000D+00  E= 8.002666D-01  Symmetry=a"
              MO Center= -3.1D-01,  1.3D-01,  6.8D-14, r^2= 2.7D+00
   Bfn.  Coefficient  Atom+Function         Bfn.  Coefficient  Atom+Function  
  ----- ------------  ---------------      ----- ------------  ---------------
     9      1.512999  1 C  pz                22     -1.476576  4 N  pz         
    11     -1.005334  2 H  s                 24      1.005334  5 H  s          
     5     -0.599762  1 C  pz                25     -0.573629  6 H  s          
    27      0.573629  7 H  s                 18      0.445827  4 N  pz         
    10      0.358469  2 H  s                 23     -0.358469  5 H  s          

 Vector   21  Occ=0.000000D+00  E= 8.026286D-01  Symmetry=a'
              MO Center= -5.5D-02,  4.9D-01, -6.6D-14, r^2= 2.3D+00
   Bfn.  Coefficient  Atom+Function         Bfn.  Coefficient  Atom+Function  
  ----- ------------  ---------------      ----- ------------  ---------------
    21      1.264220  4 N  py                20      1.017639  4 N  px         
     7     -0.939172  1 C  px                13      0.697825  3 H  s          
    17     -0.589711  4 N  py                 6      0.555443  1 C  s          
     8      0.538821  1 C  py                16     -0.502996  4 N  px         
    25     -0.390417  6 H  s                 27     -0.390417  7 H  s          

 Vector   22  Occ=0.000000D+00  E= 8.852913D-01  Symmetry=a'
              MO Center=  5.4D-01, -1.5D-01, -3.6D-15, r^2= 2.4D+00
   Bfn.  Coefficient  Atom+Function         Bfn.  Coefficient  Atom+Function  
  ----- ------------  ---------------      ----- ------------  ---------------
    13      1.107400  3 H  s                 12     -0.847798  3 H  s          
     7     -0.728445  1 C  px                 6     -0.677155  1 C  s          
    21     -0.562518  4 N  py                25     -0.527902  6 H  s          
    27     -0.527902  7 H  s                 26      0.464197  6 H  s          
    28      0.464197  7 H  s                  3      0.449713  1 C  px         

 Vector   23  Occ=0.000000D+00  E= 9.264783D-01  Symmetry=a"
              MO Center=  2.0D-01,  9.6D-01,  1.8D-15, r^2= 1.9D+00
   Bfn.  Coefficient  Atom+Function         Bfn.  Coefficient  Atom+Function  
  ----- ------------  ---------------      ----- ------------  ---------------
    22      1.274450  4 N  pz                26      1.277502  6 H  s          
    28     -1.277502  7 H  s                 18     -0.959268  4 N  pz         
    25     -0.564742  6 H  s                 27      0.564742  7 H  s          
     9      0.367493  1 C  pz                11     -0.287191  2 H  s          
    24      0.287191  5 H  s                  5     -0.243440  1 C  pz         

 Vector   24  Occ=0.000000D+00  E= 9.655207D-01  Symmetry=a'
              MO Center= -1.3D-01, -6.5D-01, -1.6D-15, r^2= 2.8D+00
   Bfn.  Coefficient  Atom+Function         Bfn.  Coefficient  Atom+Function  
  ----- ------------  ---------------      ----- ------------  ---------------
    11      0.967018  2 H  s                 24      0.967018  5 H  s          
    13     -0.745337  3 H  s                  6     -0.723730  1 C  s          
    10     -0.673243  2 H  s                 23     -0.673243  5 H  s          
    12      0.601324  3 H  s                  3     -0.569532  1 C  px         
    20      0.522007  4 N  px                 2      0.485859  1 C  s          

 Vector   25  Occ=0.000000D+00  E= 9.853587D-01  Symmetry=a'
              MO Center=  2.9D-01,  1.1D-01,  3.4D-17, r^2= 3.2D+00
   Bfn.  Coefficient  Atom+Function         Bfn.  Coefficient  Atom+Function  
  ----- ------------  ---------------      ----- ------------  ---------------
     6      1.396735  1 C  s                 19     -0.990077  4 N  s          
     2     -0.889050  1 C  s                 13     -0.889907  3 H  s          
    26      0.847956  6 H  s                 28      0.847956  7 H  s          
    21     -0.824272  4 N  py                11     -0.716683  2 H  s          
    24     -0.716683  5 H  s                  8     -0.692346  1 C  py         

 Vector   26  Occ=0.000000D+00  E= 9.970532D-01  Symmetry=a"
              MO Center= -3.5D-01, -5.1D-01,  2.3D-15, r^2= 2.9D+00
   Bfn.  Coefficient  Atom+Function         Bfn.  Coefficient  Atom+Function  
  ----- ------------  ---------------      ----- ------------  ---------------
    11      0.954952  2 H  s                 24     -0.954952  5 H  s          
    22     -0.904601  4 N  pz                10     -0.791795  2 H  s          
    23      0.791795  5 H  s                  5      0.576983  1 C  pz         
    25     -0.520465  6 H  s                 27      0.520465  7 H  s          
     9     -0.218288  1 C  pz                18      0.147900  4 N  pz         

 Vector   27  Occ=0.000000D+00  E= 1.107772D+00  Symmetry=a'
              MO Center=  1.4D-01, -3.5D-01, -7.8D-16, r^2= 2.7D+00
   Bfn.  Coefficient  Atom+Function         Bfn.  Coefficient  Atom+Function  
  ----- ------------  ---------------      ----- ------------  ---------------
     6      4.618587  1 C  s                  2     -1.989123  1 C  s          
    13     -1.010577  3 H  s                 11     -0.817876  2 H  s          
    24     -0.817876  5 H  s                 15     -0.813190  4 N  s          
    21      0.750556  4 N  py                19      0.670069  4 N  s          
    26     -0.590120  6 H  s                 28     -0.590120  7 H  s          

 Vector   28  Occ=0.000000D+00  E= 1.534954D+00  Symmetry=a'
              MO Center=  8.6D-02,  1.6D-01, -7.0D-16, r^2= 2.2D+00
   Bfn.  Coefficient  Atom+Function         Bfn.  Coefficient  Atom+Function  
  ----- ------------  ---------------      ----- ------------  ---------------
    19     -4.534662  4 N  s                  6      4.463460  1 C  s          
    15      1.757371  4 N  s                 21      1.500490  4 N  py         
     8      1.213030  1 C  py                 2     -0.981846  1 C  s          
    20     -0.513487  4 N  px                25      0.501441  6 H  s          
    27      0.501441  7 H  s                 12     -0.488100  3 H  s          


     ---------------------------------------------
      Total Density - Mulliken Population Analysis
     ---------------------------------------------

    Atom       Charge   Shell Charges
 -----------   ------   -------------------------------------------------------
    1 C    6     6.28   2.00  0.68  2.13  0.61  0.86
    2 H    1     0.85   0.54  0.31
    3 H    1     0.89   0.55  0.34
    4 N    7     7.67   2.00  0.78  2.50  0.89  1.50
    5 H    1     0.85   0.54  0.31
    6 H    1     0.73   0.53  0.20
    7 H    1     0.73   0.53  0.20

     -------------------------------------------
      Total Density - Lowdin Population Analysis
     -------------------------------------------

    Atom       Charge   Shell Charges
 -----------   ------   -------------------------------------------------------
    1 C    6     6.23   1.99  0.56  1.92  0.44  1.32
    2 H    1     0.89   0.52  0.37
    3 H    1     0.92   0.54  0.39
    4 N    7     7.46   1.99  0.72  2.35  0.59  1.81
    5 H    1     0.89   0.52  0.37
    6 H    1     0.80   0.50  0.30
    7 H    1     0.80   0.50  0.30

 center of mass
 --------------
 x =  -0.04590162 y =   0.05920723 z =   0.00000000

 moments of inertia (a.u.)
 ------------------
          81.662406875645           0.000000000033           0.000000000000
           0.000000000033          17.842397463240           0.000000000000
           0.000000000000           0.000000000000          77.941258900910

     Multipole analysis of the density
     ---------------------------------

     L   x y z        total         alpha         beta         nuclear
     -   - - -        -----         -----         ----         -------
     0   0 0 0     -0.000000     -9.000000     -9.000000     18.000000

     1   1 0 0      0.664177      0.332088      0.332088      0.000000
     1   0 1 0     -0.161568     -0.080784     -0.080784     -0.000000
     1   0 0 1     -0.000000     -0.000000     -0.000000      0.000000

     2   2 0 0    -11.288252     -9.060232     -9.060232      6.832211
     2   1 1 0      1.822595      0.147610      0.147610      1.527375
     2   1 0 1      0.000000      0.000000      0.000000      0.000000
     2   0 2 0    -10.464058    -28.254470    -28.254470     46.044883
     2   0 1 1      0.000000      0.000000      0.000000      0.000000
     2   0 0 2     -9.146019     -9.922040     -9.922040     10.698060


 Parallel integral file used       8 records with       0 large values


            General Information
            -------------------
          SCF calculation type: DFT
          Wavefunction type:  closed shell.
          No. of atoms     :     7
          No. of electrons :    18
           Alpha electrons :     9
            Beta electrons :     9
          Charge           :     0
          Spin multiplicity:     1
          Use of symmetry is: on ; symmetry adaption is: on 
          Maximum number of iterations: 500
          AO basis - number of functions:    28
                     number of shells:    20
          Convergence on energy requested:  1.00D-06
          Convergence on density requested:  1.00D-05
          Convergence on gradient requested:  5.00D-04

              XC Information
              --------------
                         B3LYP Method XC Potential
                     Hartree-Fock (Exact) Exchange  0.200          
                        Slater Exchange Functional  0.800 local    
                    Becke 1988 Exchange Functional  0.720 non-local
              Lee-Yang-Parr Correlation Functional  0.810          
                  VWN I RPA Correlation Functional  0.190 local    

             Grid Information
             ----------------
          Grid used for XC integration:  medium    
          Radial quadrature: Mura-Knowles        
          Angular quadrature: Lebedev. 
          Tag              B.-S. Rad. Rad. Pts. Rad. Cut. Ang. Pts.
          ---              ---------- --------- --------- ---------
          C                   0.70       49           7.0       434
          H                   0.35       45           8.0       434
          N                   0.65       49           7.0       434
          Grid pruning is: on 
          Number of quadrature shells:   233
          Spatial weights used:  Erf1

          Convergence Information
          -----------------------
          Convergence aids based upon iterative change in 
          total energy or number of iterations. 
          Levelshifting, if invoked, occurs when the 
          HOMO/LUMO gap drops below (HL_TOL):  1.00D-02
          DIIS, if invoked, will attempt to extrapolate 
          using up to (NFOCK): 10 stored Fock matrices.

                    Damping( 0%)  Levelshifting(0.5)       DIIS
                  --------------- ------------------- ---------------
          dE  on:    start            ASAP                start   
          dE off:    2 iters        500 iters           500 iters 


      Screening Tolerance Information
      -------------------------------
          Density screening/tol_rho:  1.00D-10
          AO Gaussian exp screening on grid/accAOfunc:  14
          CD Gaussian exp screening on grid/accCDfunc:  20
          XC Gaussian exp screening on grid/accXCfunc:  20
          Schwarz screening/accCoul:  1.00D-08



                            NWChem DFT Gradient Module
                            --------------------------


                       methylamine opt, freq, and properties



  charge          =   0.00
  wavefunction    = closed shell

  Using symmetry


                         DFT ENERGY GRADIENTS

    atom               coordinates                        gradient
                 x          y          z           x          y          z
   1 C      -0.023798  -1.340931   0.000000   -0.001762  -0.002816   0.000000
   2 H      -0.952257  -2.082302   1.680278    0.001857   0.003395  -0.000942
   3 H       1.953116  -1.912600   0.000000   -0.006308   0.015112   0.000000
   4 N      -0.184680   1.413375   0.000000   -0.008791  -0.013898   0.000000
   5 H      -0.952257  -2.082302  -1.680278    0.001857   0.003395   0.000942
   6 H       0.693475   2.114580  -1.589244    0.006573  -0.002594  -0.008604
   7 H       0.693475   2.114580   1.589244    0.006573  -0.002594   0.008604

                 ----------------------------------------
                 |  Time  |  1-e(secs)   |  2-e(secs)   |
                 ----------------------------------------
                 |  CPU   |       0.00   |       0.03   |
                 ----------------------------------------
                 |  WALL  |       0.00   |       0.03   |
                 ----------------------------------------
  no constraints, skipping    0.0000000000000000     

@ Step       Energy      Delta E   Gmax     Grms     Xrms     Xmax   Walltime
@ ---- ---------------- -------- -------- -------- -------- -------- --------
@    0     -95.82195128  0.0D+00  0.01931  0.00644  0.00000  0.00000      0.4
                                                                    



                                Z-matrix (autoz)
                                -------- 

 Units are Angstrom for bonds and degrees for angles

      Type          Name      I     J     K     L     M      Value     Gradient
      ----------- --------  ----- ----- ----- ----- ----- ---------- ----------
    1 Stretch                  1     2                       1.08900   -0.00283
    2 Stretch                  1     3                       1.08900   -0.01026
    3 Stretch                  1     4                       1.46000   -0.01931
    4 Stretch                  1     5                       1.08900   -0.00283
    5 Stretch                  4     6                       1.03000    0.00906
    6 Stretch                  4     7                       1.03000    0.00906
    7 Bend                     1     4     6               109.47119   -0.00503
    8 Bend                     1     4     7               109.47119   -0.00503
    9 Bend                     2     1     3               109.47118    0.00380
   10 Bend                     2     1     4               109.47121    0.00022
   11 Bend                     2     1     5               109.47121    0.00204
   12 Bend                     3     1     4               109.47134   -0.01010
   13 Bend                     3     1     5               109.47118    0.00380
   14 Bend                     4     1     5               109.47121    0.00022
   15 Bend                     6     4     7               109.47126    0.00303
   16 Torsion                  2     1     4     6        -180.00000   -0.00262
   17 Torsion                  2     1     4     7          60.00000   -0.00016
   18 Torsion                  3     1     4     6          60.00001   -0.00123
   19 Torsion                  3     1     4     7         -60.00001    0.00123
   20 Torsion                  5     1     4     6         -60.00000    0.00016
   21 Torsion                  5     1     4     7         180.00000    0.00262

  no constraints, skipping    0.0000000000000000     
  no constraints, skipping    0.0000000000000000     
  no constraints, skipping    0.0000000000000000     
  no constraints, skipping    0.0000000000000000     
  no constraints, skipping    0.0000000000000000     
  no constraints, skipping    0.0000000000000000     
  no constraints, skipping    0.0000000000000000     
  no constraints, skipping    0.0000000000000000     

                                 NWChem DFT Module
                                 -----------------


                       methylamine opt, freq, and properties




 Summary of "ao basis" -> "ao basis" (cartesian)
 ------------------------------------------------------------------------------
       Tag                 Description            Shells   Functions and Types
 ---------------- ------------------------------  ------  ---------------------
 C                           6-31G                   5        9   3s2p
 H                           6-31G                   2        2   2s
 N                           6-31G                   5        9   3s2p


      Symmetry analysis of basis
      --------------------------

        a'         20
        a"          8

  Caching 1-el integrals 

            General Information
            -------------------
          SCF calculation type: DFT
          Wavefunction type:  closed shell.
          No. of atoms     :     7
          No. of electrons :    18
           Alpha electrons :     9
            Beta electrons :     9
          Charge           :     0
          Spin multiplicity:     1
          Use of symmetry is: on ; symmetry adaption is: on 
          Maximum number of iterations: 500
          AO basis - number of functions:    28
                     number of shells:    20
          Convergence on energy requested:  1.00D-06
          Convergence on density requested:  1.00D-05
          Convergence on gradient requested:  5.00D-04

              XC Information
              --------------
                         B3LYP Method XC Potential
                     Hartree-Fock (Exact) Exchange  0.200          
                        Slater Exchange Functional  0.800 local    
                    Becke 1988 Exchange Functional  0.720 non-local
              Lee-Yang-Parr Correlation Functional  0.810          
                  VWN I RPA Correlation Functional  0.190 local    

             Grid Information
             ----------------
          Grid used for XC integration:  medium    
          Radial quadrature: Mura-Knowles        
          Angular quadrature: Lebedev. 
          Tag              B.-S. Rad. Rad. Pts. Rad. Cut. Ang. Pts.
          ---              ---------- --------- --------- ---------
          C                   0.70       49           7.0       434
          H                   0.35       45           8.0       434
          N                   0.65       49           7.0       434
          Grid pruning is: on 
          Number of quadrature shells:   233
          Spatial weights used:  Erf1

          Convergence Information
          -----------------------
          Convergence aids based upon iterative change in 
          total energy or number of iterations. 
          Levelshifting, if invoked, occurs when the 
          HOMO/LUMO gap drops below (HL_TOL):  1.00D-02
          DIIS, if invoked, will attempt to extrapolate 
          using up to (NFOCK): 10 stored Fock matrices.

                    Damping( 0%)  Levelshifting(0.5)       DIIS
                  --------------- ------------------- ---------------
          dE  on:    start            ASAP                start   
          dE off:    2 iters        500 iters           500 iters 


      Screening Tolerance Information
      -------------------------------
          Density screening/tol_rho:  1.00D-10
          AO Gaussian exp screening on grid/accAOfunc:  14
          CD Gaussian exp screening on grid/accCDfunc:  20
          XC Gaussian exp screening on grid/accXCfunc:  20
          Schwarz screening/accCoul:  1.00D-08


 Loading old vectors from job with title :

methylamine opt, freq, and properties


      Symmetry analysis of molecular orbitals - initial
      -------------------------------------------------

  Numbering of irreducible representations: 

     1 a'          2 a"      

  Orbital symmetries:

     1 a'          2 a'          3 a'          4 a'          5 a"      
     6 a'          7 a'          8 a"          9 a'         10 a'      
    11 a'         12 a"         13 a'         14 a"         15 a'      
    16 a'         17 a"         18 a'         19 a'      

   Time after variat. SCF:      0.4

     ---------------------------------------------
      Total Density - Mulliken Population Analysis
     ---------------------------------------------

    Atom       Charge   Shell Charges
 -----------   ------   -------------------------------------------------------
    1 C    6     6.28   2.00  0.68  2.12  0.61  0.87
    2 H    1     0.85   0.54  0.31
    3 H    1     0.89   0.54  0.34
    4 N    7     7.67   2.00  0.78  2.49  0.89  1.51
    5 H    1     0.85   0.54  0.31
    6 H    1     0.73   0.53  0.20
    7 H    1     0.73   0.53  0.20
   Time prior to 1st pass:      0.4

 #quartets = 1.315D+04 #integrals = 4.574D+04 #direct =  0.0% #cached =100.0%


 Integral file          = ./scr/job.aoints.0
 Record size in doubles =  65536        No. of integs per rec  =  43688
 Max. records in memory =      3        Max. records in file   =  61907
 No. of bits per label  =      8        No. of bits per value  =     64


File balance: exchanges=     0  moved=     0  time=   0.0

  avail0,avail1,avail0-avail1                260654               260654                    0
  avail0,avail1,avail0-avail1                260654               260654                    0
  avail0,avail1,avail0-avail1                260654               260669                  -15
  avail0,avail1,avail0-avail1                260654               260669                  -15

 Grid_pts file          = ./scr/job.gridpts.0
 Record size in doubles =  12289        No. of grid_pts per rec  =   3070
 Max. records in memory =      6        Max. recs in file   =      5157


           Memory utilization after 1st SCF pass: 
           Heap Space remaining (MW):      327.41           327407628
          Stack Space remaining (MW):      327.68           327679652

   convergence    iter        energy       DeltaE   RMS-Dens  Diis-err    time
 ---------------- ----- ----------------- --------- --------- ---------  ------
 d= 0,ls=0.0,diis     1    -95.8234417964 -1.37D+02  3.85D-03  4.94D-03     0.4
 d= 0,ls=0.0,diis     2    -95.8244893293 -1.05D-03  1.05D-03  8.57D-04     0.4
 d= 0,ls=0.0,diis     3    -95.8245105594 -2.12D-05  5.18D-04  7.22D-04     0.5
 d= 0,ls=0.0,diis     4    -95.8245920080 -8.14D-05  5.69D-05  3.81D-06     0.5
 d= 0,ls=0.0,diis     5    -95.8245924159 -4.08D-07  2.02D-05  5.23D-07     0.5
 d= 0,ls=0.0,diis     6    -95.8245924855 -6.96D-08  2.62D-06  2.40D-09     0.5


         Total DFT energy =      -95.824592485486
      One electron energy =     -210.621486396833
           Coulomb energy =       87.456035097918
    Exchange-Corr. energy =      -14.205675361077
 Nuclear repulsion energy =       41.546534174507

 Numeric. integr. density =       17.999997446727

     Total iterative time =      0.1s



                  Occupations of the irreducible representations
                  ----------------------------------------------

                     irrep           alpha         beta
                     --------     --------     --------
                     a'                7.0          7.0
                     a"                2.0          2.0


                       DFT Final Molecular Orbital Analysis
                       ------------------------------------

 Vector    1  Occ=2.000000D+00  E=-1.430187D+01  Symmetry=a'
              MO Center= -8.4D-02,  7.7D-01,  5.6D-19, r^2= 2.0D-02
   Bfn.  Coefficient  Atom+Function         Bfn.  Coefficient  Atom+Function  
  ----- ------------  ---------------      ----- ------------  ---------------
    14      0.995254  4 N  s                 15      0.031610  4 N  s          

 Vector    2  Occ=2.000000D+00  E=-1.019605D+01  Symmetry=a'
              MO Center=  8.2D-03, -7.2D-01, -1.0D-19, r^2= 2.8D-02
   Bfn.  Coefficient  Atom+Function         Bfn.  Coefficient  Atom+Function  
  ----- ------------  ---------------      ----- ------------  ---------------
     1      0.995280  1 C  s                  2      0.036215  1 C  s          
     6     -0.029811  1 C  s          

 Vector    3  Occ=2.000000D+00  E=-8.670949D-01  Symmetry=a'
              MO Center=  8.6D-02,  5.1D-01,  1.2D-15, r^2= 9.2D-01
   Bfn.  Coefficient  Atom+Function         Bfn.  Coefficient  Atom+Function  
  ----- ------------  ---------------      ----- ------------  ---------------
    19      0.400541  4 N  s                 15      0.384617  4 N  s          
     2      0.185649  1 C  s                 14     -0.185300  4 N  s          
    25      0.125478  6 H  s                 27      0.125478  7 H  s          
     6      0.105536  1 C  s                 16      0.098137  4 N  px         
     1     -0.095431  1 C  s                  4      0.090887  1 C  py         

 Vector    4  Occ=2.000000D+00  E=-6.623023D-01  Symmetry=a'
              MO Center=  2.9D-02, -4.5D-01, -4.0D-16, r^2= 1.7D+00
   Bfn.  Coefficient  Atom+Function         Bfn.  Coefficient  Atom+Function  
  ----- ------------  ---------------      ----- ------------  ---------------
     6      0.348299  1 C  s                  2      0.341012  1 C  s          
    19     -0.207112  4 N  s                  1     -0.172619  1 C  s          
    17     -0.159442  4 N  py                15     -0.157861  4 N  s          
    10      0.137818  2 H  s                 23      0.137818  5 H  s          
    12      0.129523  3 H  s                 25     -0.105123  6 H  s          

 Vector    5  Occ=2.000000D+00  E=-4.854394D-01  Symmetry=a"
              MO Center=  2.7D-02,  4.9D-01, -9.1D-16, r^2= 1.6D+00
   Bfn.  Coefficient  Atom+Function         Bfn.  Coefficient  Atom+Function  
  ----- ------------  ---------------      ----- ------------  ---------------
    18      0.419395  4 N  pz                 5      0.229102  1 C  pz         
    25     -0.213726  6 H  s                 27      0.213726  7 H  s          
    22      0.185015  4 N  pz                26     -0.133046  6 H  s          
    28      0.133046  7 H  s                  9      0.118319  1 C  pz         
    10      0.099036  2 H  s                 23     -0.099036  5 H  s          

 Vector    6  Occ=2.000000D+00  E=-4.313905D-01  Symmetry=a'
              MO Center=  2.1D-01, -2.2D-01,  7.2D-16, r^2= 1.6D+00
   Bfn.  Coefficient  Atom+Function         Bfn.  Coefficient  Atom+Function  
  ----- ------------  ---------------      ----- ------------  ---------------
    17     -0.326934  4 N  py                 4      0.304844  1 C  py         
     3     -0.264554  1 C  px                12     -0.217573  3 H  s          
    13     -0.184860  3 H  s                 16     -0.164270  4 N  px         
    21     -0.156732  4 N  py                 8      0.114620  1 C  py         
    25     -0.100123  6 H  s                 27     -0.100123  7 H  s          

 Vector    7  Occ=2.000000D+00  E=-3.993619D-01  Symmetry=a'
              MO Center= -1.1D-02, -4.7D-01, -8.0D-16, r^2= 1.7D+00
   Bfn.  Coefficient  Atom+Function         Bfn.  Coefficient  Atom+Function  
  ----- ------------  ---------------      ----- ------------  ---------------
     3      0.351029  1 C  px                17     -0.277774  4 N  py         
     4      0.250245  1 C  py                 7      0.169272  1 C  px         
    12      0.160451  3 H  s                 10     -0.159492  2 H  s          
    23     -0.159492  5 H  s                 21     -0.154839  4 N  py         
    13      0.133128  3 H  s                 11     -0.128024  2 H  s          

 Vector    8  Occ=2.000000D+00  E=-3.708317D-01  Symmetry=a"
              MO Center= -1.5D-01, -4.5D-01,  1.0D-15, r^2= 1.9D+00
   Bfn.  Coefficient  Atom+Function         Bfn.  Coefficient  Atom+Function  
  ----- ------------  ---------------      ----- ------------  ---------------
     5      0.399946  1 C  pz                18     -0.240637  4 N  pz         
    10      0.226867  2 H  s                 23     -0.226867  5 H  s          
    11      0.201145  2 H  s                 24     -0.201145  5 H  s          
     9      0.177041  1 C  pz                25      0.152826  6 H  s          
    27     -0.152826  7 H  s                 26      0.122294  6 H  s          

 Vector    9  Occ=2.000000D+00  E=-2.136726D-01  Symmetry=a'
              MO Center= -1.8D-01,  6.0D-01, -1.7D-16, r^2= 1.3D+00
   Bfn.  Coefficient  Atom+Function         Bfn.  Coefficient  Atom+Function  
  ----- ------------  ---------------      ----- ------------  ---------------
    16      0.536175  4 N  px                20      0.467525  4 N  px         
    13     -0.216136  3 H  s                 19     -0.209576  4 N  s          
    12     -0.146492  3 H  s                 15     -0.139120  4 N  s          
    21     -0.138660  4 N  py                17     -0.125368  4 N  py         
     3     -0.122170  1 C  px                11      0.085462  2 H  s          

 Vector   10  Occ=0.000000D+00  E= 8.332388D-02  Symmetry=a'
              MO Center=  3.7D-01,  7.1D-01, -4.1D-16, r^2= 3.6D+00
   Bfn.  Coefficient  Atom+Function         Bfn.  Coefficient  Atom+Function  
  ----- ------------  ---------------      ----- ------------  ---------------
    19      1.527501  4 N  s                 26     -0.967745  6 H  s          
    28     -0.967745  7 H  s                  6      0.694381  1 C  s          
     8     -0.555366  1 C  py                13     -0.447156  3 H  s          
    11     -0.442520  2 H  s                 24     -0.442520  5 H  s          
    20      0.379981  4 N  px                 4     -0.181248  1 C  py         

 Vector   11  Occ=0.000000D+00  E= 1.345579D-01  Symmetry=a'
              MO Center=  1.2D-01, -8.7D-01, -2.5D-17, r^2= 4.1D+00
   Bfn.  Coefficient  Atom+Function         Bfn.  Coefficient  Atom+Function  
  ----- ------------  ---------------      ----- ------------  ---------------
     6      2.494841  1 C  s                 13     -1.105393  3 H  s          
    11     -1.027134  2 H  s                 24     -1.027134  5 H  s          
    19     -0.987741  4 N  s                 26      0.405850  6 H  s          
    28      0.405850  7 H  s                 21      0.279081  4 N  py         
    20     -0.189391  4 N  px                 2      0.185297  1 C  s          

 Vector   12  Occ=0.000000D+00  E= 1.527436D-01  Symmetry=a"
              MO Center=  2.6D-02,  3.2D-01, -4.3D-15, r^2= 4.3D+00
   Bfn.  Coefficient  Atom+Function         Bfn.  Coefficient  Atom+Function  
  ----- ------------  ---------------      ----- ------------  ---------------
    26      1.095913  6 H  s                 28     -1.095913  7 H  s          
    11     -0.920541  2 H  s                 24      0.920541  5 H  s          
     9      0.705106  1 C  pz                22      0.698390  4 N  pz         
    18      0.310184  4 N  pz                 5      0.277699  1 C  pz         
    25      0.082779  6 H  s                 27     -0.082779  7 H  s          

 Vector   13  Occ=0.000000D+00  E= 1.751896D-01  Symmetry=a'
              MO Center=  4.1D-01, -1.0D+00,  5.6D-15, r^2= 2.9D+00
   Bfn.  Coefficient  Atom+Function         Bfn.  Coefficient  Atom+Function  
  ----- ------------  ---------------      ----- ------------  ---------------
    13      1.633460  3 H  s                  7     -1.316282  1 C  px         
    11     -0.965640  2 H  s                 24     -0.965640  5 H  s          
     3     -0.439099  1 C  px                 8     -0.237162  1 C  py         
    20      0.235472  4 N  px                21     -0.150963  4 N  py         
    26      0.107252  6 H  s                 28      0.107252  7 H  s          

 Vector   14  Occ=0.000000D+00  E= 1.857659D-01  Symmetry=a"
              MO Center= -7.7D-02, -2.1D-01, -3.3D-15, r^2= 4.2D+00
   Bfn.  Coefficient  Atom+Function         Bfn.  Coefficient  Atom+Function  
  ----- ------------  ---------------      ----- ------------  ---------------
    11     -1.257262  2 H  s                 24      1.257262  5 H  s          
     9      1.230590  1 C  pz                26     -0.912708  6 H  s          
    28      0.912708  7 H  s                 22     -0.837628  4 N  pz         
     5      0.304261  1 C  pz                18     -0.280600  4 N  pz         
    10     -0.077343  2 H  s                 23      0.077343  5 H  s          

 Vector   15  Occ=0.000000D+00  E= 2.299180D-01  Symmetry=a'
              MO Center=  5.6D-02, -2.0D-01,  1.2D-15, r^2= 2.7D+00
   Bfn.  Coefficient  Atom+Function         Bfn.  Coefficient  Atom+Function  
  ----- ------------  ---------------      ----- ------------  ---------------
     8      1.568325  1 C  py                21      1.282434  4 N  py         
     6      0.819577  1 C  s                 19     -0.669911  4 N  s          
    13      0.631318  3 H  s                 26     -0.633877  6 H  s          
    28     -0.633877  7 H  s                 17      0.428471  4 N  py         
     7     -0.380836  1 C  px                 4      0.336405  1 C  py         

 Vector   16  Occ=0.000000D+00  E= 5.649757D-01  Symmetry=a'
              MO Center=  2.7D-02, -8.1D-01, -1.6D-15, r^2= 1.9D+00
   Bfn.  Coefficient  Atom+Function         Bfn.  Coefficient  Atom+Function  
  ----- ------------  ---------------      ----- ------------  ---------------
     8      1.582947  1 C  py                 4     -1.045287  1 C  py         
    19     -0.780552  4 N  s                  2     -0.301936  1 C  s          
     7      0.201694  1 C  px                11      0.198888  2 H  s          
    24      0.198888  5 H  s                 15      0.188402  4 N  s          
    10      0.138220  2 H  s                 23      0.138220  5 H  s          

 Vector   17  Occ=0.000000D+00  E= 5.726994D-01  Symmetry=a"
              MO Center=  2.3D-01, -5.1D-01,  1.6D-15, r^2= 2.2D+00
   Bfn.  Coefficient  Atom+Function         Bfn.  Coefficient  Atom+Function  
  ----- ------------  ---------------      ----- ------------  ---------------
     9      1.638406  1 C  pz                 5     -0.762188  1 C  pz         
    10     -0.415786  2 H  s                 23      0.415786  5 H  s          
    11     -0.344269  2 H  s                 24      0.344269  5 H  s          
    25      0.251693  6 H  s                 27     -0.251693  7 H  s          
    22     -0.047410  4 N  pz         

 Vector   18  Occ=0.000000D+00  E= 6.001451D-01  Symmetry=a'
              MO Center= -2.3D-01, -5.3D-01,  2.5D-16, r^2= 2.1D+00
   Bfn.  Coefficient  Atom+Function         Bfn.  Coefficient  Atom+Function  
  ----- ------------  ---------------      ----- ------------  ---------------
     7      1.723428  1 C  px                 3     -0.743954  1 C  px         
    13     -0.521208  3 H  s                 12     -0.496524  3 H  s          
    16     -0.286229  4 N  px                19      0.270029  4 N  s          
     8     -0.242001  1 C  py                11      0.219797  2 H  s          
    24      0.219797  5 H  s                 10      0.205651  2 H  s          

 Vector   19  Occ=0.000000D+00  E= 7.585027D-01  Symmetry=a'
              MO Center= -2.7D-01,  9.9D-01, -1.2D-15, r^2= 1.7D+00
   Bfn.  Coefficient  Atom+Function         Bfn.  Coefficient  Atom+Function  
  ----- ------------  ---------------      ----- ------------  ---------------
    21     -0.933154  4 N  py                20      0.897383  4 N  px         
     7     -0.811441  1 C  px                 6     -0.795666  1 C  s          
    16     -0.787794  4 N  px                13      0.497850  3 H  s          
    17      0.475369  4 N  py                 3      0.293587  1 C  px         
    25      0.289197  6 H  s                 27      0.289197  7 H  s          

 Vector   20  Occ=0.000000D+00  E= 8.019945D-01  Symmetry=a"
              MO Center= -2.9D-01,  7.2D-02,  9.1D-16, r^2= 2.7D+00
   Bfn.  Coefficient  Atom+Function         Bfn.  Coefficient  Atom+Function  
  ----- ------------  ---------------      ----- ------------  ---------------
     9      1.575704  1 C  pz                22     -1.513157  4 N  pz         
    11     -1.035512  2 H  s                 24      1.035512  5 H  s          
     5     -0.628259  1 C  pz                25     -0.549154  6 H  s          
    27      0.549154  7 H  s                 18      0.455035  4 N  pz         
    10      0.347937  2 H  s                 23     -0.347937  5 H  s          

 Vector   21  Occ=0.000000D+00  E= 8.102882D-01  Symmetry=a'
              MO Center= -8.3D-02,  4.8D-01,  7.7D-16, r^2= 2.4D+00
   Bfn.  Coefficient  Atom+Function         Bfn.  Coefficient  Atom+Function  
  ----- ------------  ---------------      ----- ------------  ---------------
    21      1.445247  4 N  py                 7     -1.016447  1 C  px         
    20      0.979782  4 N  px                 6      0.842065  1 C  s          
    13      0.721551  3 H  s                 17     -0.626844  4 N  py         
     8      0.566964  1 C  py                16     -0.468612  4 N  px         
    11     -0.440684  2 H  s                 24     -0.440684  5 H  s          

 Vector   22  Occ=0.000000D+00  E= 8.873051D-01  Symmetry=a'
              MO Center=  6.1D-01, -4.4D-01,  1.5D-16, r^2= 2.4D+00
   Bfn.  Coefficient  Atom+Function         Bfn.  Coefficient  Atom+Function  
  ----- ------------  ---------------      ----- ------------  ---------------
    13      1.266236  3 H  s                 12     -0.953695  3 H  s          
     7     -0.822187  1 C  px                 3      0.498753  1 C  px         
    25     -0.485769  6 H  s                 27     -0.485769  7 H  s          
     6     -0.469694  1 C  s                 21     -0.357299  4 N  py         
    26      0.356442  6 H  s                 28      0.356442  7 H  s          

 Vector   23  Occ=0.000000D+00  E= 9.385250D-01  Symmetry=a"
              MO Center=  2.1D-01,  1.0D+00,  3.1D-16, r^2= 1.9D+00
   Bfn.  Coefficient  Atom+Function         Bfn.  Coefficient  Atom+Function  
  ----- ------------  ---------------      ----- ------------  ---------------
    26      1.287821  6 H  s                 28     -1.287821  7 H  s          
    22      1.224233  4 N  pz                18     -0.953741  4 N  pz         
    25     -0.598760  6 H  s                 27      0.598760  7 H  s          
     9      0.345245  1 C  pz                11     -0.260896  2 H  s          
    24      0.260896  5 H  s                  5     -0.226848  1 C  pz         

 Vector   24  Occ=0.000000D+00  E= 9.650962D-01  Symmetry=a'
              MO Center= -4.6D-02, -3.9D-01,  4.4D-16, r^2= 3.1D+00
   Bfn.  Coefficient  Atom+Function         Bfn.  Coefficient  Atom+Function  
  ----- ------------  ---------------      ----- ------------  ---------------
    11      0.781476  2 H  s                 24      0.781476  5 H  s          
    13     -0.669921  3 H  s                 10     -0.649160  2 H  s          
    23     -0.649160  5 H  s                 20      0.598226  4 N  px         
    12      0.570126  3 H  s                 25     -0.500011  6 H  s          
    27     -0.500011  7 H  s                  3     -0.478022  1 C  px         

 Vector   25  Occ=0.000000D+00  E= 9.828363D-01  Symmetry=a'
              MO Center=  1.3D-01,  8.8D-02,  6.5D-16, r^2= 3.3D+00
   Bfn.  Coefficient  Atom+Function         Bfn.  Coefficient  Atom+Function  
  ----- ------------  ---------------      ----- ------------  ---------------
     6      1.585054  1 C  s                  2     -0.983664  1 C  s          
    19     -0.925996  4 N  s                 21     -0.868469  4 N  py         
    11     -0.863274  2 H  s                 24     -0.863274  5 H  s          
    26      0.821174  6 H  s                 28      0.821174  7 H  s          
     8     -0.727909  1 C  py                13     -0.693372  3 H  s          

 Vector   26  Occ=0.000000D+00  E= 9.892513D-01  Symmetry=a"
              MO Center= -3.5D-01, -5.3D-01, -6.5D-16, r^2= 2.9D+00
   Bfn.  Coefficient  Atom+Function         Bfn.  Coefficient  Atom+Function  
  ----- ------------  ---------------      ----- ------------  ---------------
    22     -0.965009  4 N  pz                11      0.944182  2 H  s          
    24     -0.944182  5 H  s                 10     -0.794710  2 H  s          
    23      0.794710  5 H  s                  5      0.555563  1 C  pz         
    25     -0.500011  6 H  s                 27      0.500011  7 H  s          
     9     -0.183946  1 C  pz                18      0.179242  4 N  pz         

 Vector   27  Occ=0.000000D+00  E= 1.100369D+00  Symmetry=a'
              MO Center=  1.1D-01, -3.1D-01, -2.6D-15, r^2= 2.8D+00
   Bfn.  Coefficient  Atom+Function         Bfn.  Coefficient  Atom+Function  
  ----- ------------  ---------------      ----- ------------  ---------------
     6      4.395308  1 C  s                  2     -1.935176  1 C  s          
    13     -0.934569  3 H  s                 19      0.914181  4 N  s          
    15     -0.897360  4 N  s                 11     -0.827037  2 H  s          
    24     -0.827037  5 H  s                 21      0.737709  4 N  py         
    26     -0.647067  6 H  s                 28     -0.647067  7 H  s          

 Vector   28  Occ=0.000000D+00  E= 1.504953D+00  Symmetry=a'
              MO Center=  1.2D-01,  1.7D-01, -2.3D-16, r^2= 2.2D+00
   Bfn.  Coefficient  Atom+Function         Bfn.  Coefficient  Atom+Function  
  ----- ------------  ---------------      ----- ------------  ---------------
    19     -4.280524  4 N  s                  6      4.236795  1 C  s          
    15      1.718511  4 N  s                 21      1.291768  4 N  py         
     2     -1.027882  1 C  s                  8      1.005465  1 C  py         
    20     -0.511217  4 N  px                25      0.473779  6 H  s          
    27      0.473779  7 H  s                 12     -0.454386  3 H  s          


     ---------------------------------------------
      Total Density - Mulliken Population Analysis
     ---------------------------------------------

    Atom       Charge   Shell Charges
 -----------   ------   -------------------------------------------------------
    1 C    6     6.27   2.00  0.68  2.11  0.62  0.87
    2 H    1     0.85   0.54  0.31
    3 H    1     0.89   0.54  0.35
    4 N    7     7.68   2.00  0.78  2.50  0.88  1.52
    5 H    1     0.85   0.54  0.31
    6 H    1     0.73   0.53  0.19
    7 H    1     0.73   0.53  0.19

     -------------------------------------------
      Total Density - Lowdin Population Analysis
     -------------------------------------------

    Atom       Charge   Shell Charges
 -----------   ------   -------------------------------------------------------
    1 C    6     6.23   1.99  0.56  1.90  0.44  1.34
    2 H    1     0.89   0.52  0.37
    3 H    1     0.92   0.53  0.40
    4 N    7     7.46   1.99  0.71  2.35  0.59  1.82
    5 H    1     0.89   0.52  0.37
    6 H    1     0.80   0.51  0.30
    7 H    1     0.80   0.51  0.30

 center of mass
 --------------
 x =  -0.02129886 y =   0.06779930 z =   0.00000000

 moments of inertia (a.u.)
 ------------------
          85.358343616036           0.688543040091           0.000000000000
           0.688543040091          17.345994746274           0.000000000000
           0.000000000000           0.000000000000          81.728599788407

     Multipole analysis of the density
     ---------------------------------

     L   x y z        total         alpha         beta         nuclear
     -   - - -        -----         -----         ----         -------
     0   0 0 0     -0.000000     -9.000000     -9.000000     18.000000

     1   1 0 0      0.624424      0.137381      0.137381      0.349661
     1   0 1 0     -0.111351     -0.117886     -0.117886      0.124421
     1   0 0 1     -0.000000     -0.000000     -0.000000      0.000000

     2   2 0 0    -11.386938     -9.014851     -9.014851      6.642764
     2   1 1 0      1.743434      0.378696      0.378696      0.986043
     2   1 0 1      0.000000      0.000000      0.000000      0.000000
     2   0 2 0     -9.979534    -29.529140    -29.529140     49.078747
     2   0 1 1      0.000000      0.000000      0.000000      0.000000
     2   0 0 2     -9.246820     -9.826630     -9.826630     10.406439


 Parallel integral file used       8 records with       0 large values

 Line search: 
     step= 1.00 grad=-6.0D-03 hess= 3.3D-03 energy=    -95.824592 mode=downhill
[...]
 Vector   17  Occ=0.000000D+00  E= 5.735153D-01  Symmetry=a"
              MO Center=  2.5D-01, -5.3D-01,  5.1D-15, r^2= 2.2D+00
   Bfn.  Coefficient  Atom+Function         Bfn.  Coefficient  Atom+Function  
  ----- ------------  ---------------      ----- ------------  ---------------
     9      1.638869  1 C  pz                 5     -0.773053  1 C  pz         
    10     -0.413880  2 H  s                 23      0.413880  5 H  s          
    11     -0.332958  2 H  s                 24      0.332958  5 H  s          
    25      0.236539  6 H  s                 27     -0.236539  7 H  s          
    22     -0.074136  4 N  pz                18      0.032143  4 N  pz         

 Vector   18  Occ=0.000000D+00  E= 6.071369D-01  Symmetry=a'
              MO Center= -2.1D-01, -5.2D-01, -2.0D-16, r^2= 2.1D+00
   Bfn.  Coefficient  Atom+Function         Bfn.  Coefficient  Atom+Function  
  ----- ------------  ---------------      ----- ------------  ---------------
     7      1.732361  1 C  px                 3     -0.738000  1 C  px         
    13     -0.553127  3 H  s                 12     -0.494585  3 H  s          
     8     -0.349674  1 C  py                16     -0.313143  4 N  px         
    19      0.290818  4 N  s                 11      0.230849  2 H  s          
    24      0.230849  5 H  s                 10      0.194873  2 H  s          

 Vector   19  Occ=0.000000D+00  E= 7.610157D-01  Symmetry=a'
              MO Center= -2.2D-01,  9.3D-01,  4.9D-16, r^2= 1.7D+00
   Bfn.  Coefficient  Atom+Function         Bfn.  Coefficient  Atom+Function  
  ----- ------------  ---------------      ----- ------------  ---------------
    20     -0.939087  4 N  px                 7      0.906045  1 C  px         
    21      0.904219  4 N  py                16      0.798872  4 N  px         
     6      0.742526  1 C  s                 13     -0.522381  3 H  s          
    17     -0.426919  4 N  py                 3     -0.316333  1 C  px         
    25     -0.307547  6 H  s                 27     -0.307547  7 H  s          

 Vector   20  Occ=0.000000D+00  E= 8.011590D-01  Symmetry=a'
              MO Center=  7.4D-02,  6.5D-01,  3.8D-17, r^2= 2.2D+00
   Bfn.  Coefficient  Atom+Function         Bfn.  Coefficient  Atom+Function  
  ----- ------------  ---------------      ----- ------------  ---------------
    21      1.479826  4 N  py                 7     -1.001217  1 C  px         
     6      0.978869  1 C  s                 20      0.947017  4 N  px         
    13      0.676778  3 H  s                 17     -0.585380  4 N  py         
     8      0.576168  1 C  py                25     -0.466471  6 H  s          
    27     -0.466471  7 H  s                 16     -0.449545  4 N  px         

 Vector   21  Occ=0.000000D+00  E= 8.249414D-01  Symmetry=a"
              MO Center= -3.0D-01, -1.8D-01,  2.2D-15, r^2= 2.7D+00
   Bfn.  Coefficient  Atom+Function         Bfn.  Coefficient  Atom+Function  
  ----- ------------  ---------------      ----- ------------  ---------------
     9      1.624590  1 C  pz                22     -1.519774  4 N  pz         
    11     -1.168363  2 H  s                 24      1.168363  5 H  s          
     5     -0.673589  1 C  pz                25     -0.497917  6 H  s          
    27      0.497917  7 H  s                 10      0.447894  2 H  s          
    23     -0.447894  5 H  s                 18      0.441820  4 N  pz         

 Vector   22  Occ=0.000000D+00  E= 8.838010D-01  Symmetry=a'
              MO Center=  4.5D-01, -3.0D-01, -2.4D-15, r^2= 2.6D+00
   Bfn.  Coefficient  Atom+Function         Bfn.  Coefficient  Atom+Function  
  ----- ------------  ---------------      ----- ------------  ---------------
    13      1.038981  3 H  s                 12     -0.851181  3 H  s          
     7     -0.686237  1 C  px                21     -0.553835  4 N  py         
     6     -0.513628  1 C  s                 25     -0.506103  6 H  s          
    27     -0.506103  7 H  s                 17      0.459056  4 N  py         
    26      0.415500  6 H  s                 28      0.415500  7 H  s          

 Vector   23  Occ=0.000000D+00  E= 9.455435D-01  Symmetry=a"
              MO Center=  1.8D-01,  9.7D-01,  1.3D-15, r^2= 2.0D+00
   Bfn.  Coefficient  Atom+Function         Bfn.  Coefficient  Atom+Function  
  ----- ------------  ---------------      ----- ------------  ---------------
    22      1.338371  4 N  pz                26      1.279098  6 H  s          
    28     -1.279098  7 H  s                 18     -0.977941  4 N  pz         
    25     -0.546072  6 H  s                 27      0.546072  7 H  s          
    11     -0.328521  2 H  s                 24      0.328521  5 H  s          
     9      0.319649  1 C  pz                 5     -0.272957  1 C  pz         

 Vector   24  Occ=0.000000D+00  E= 9.538869D-01  Symmetry=a'
              MO Center=  2.0D-01, -5.0D-01, -2.9D-15, r^2= 3.0D+00
   Bfn.  Coefficient  Atom+Function         Bfn.  Coefficient  Atom+Function  
  ----- ------------  ---------------      ----- ------------  ---------------
    13      1.007279  3 H  s                 12     -0.751099  3 H  s          
    11     -0.674186  2 H  s                 24     -0.674186  5 H  s          
    10      0.592705  2 H  s                 23      0.592705  5 H  s          
     3      0.551229  1 C  px                20     -0.483330  4 N  px         
    25      0.457708  6 H  s                 27      0.457708  7 H  s          

 Vector   25  Occ=0.000000D+00  E= 9.818894D-01  Symmetry=a'
              MO Center=  5.6D-03, -1.3D-01,  8.6D-15, r^2= 3.3D+00
   Bfn.  Coefficient  Atom+Function         Bfn.  Coefficient  Atom+Function  
  ----- ------------  ---------------      ----- ------------  ---------------
     6      1.668138  1 C  s                  2     -1.071786  1 C  s          
    11     -0.980885  2 H  s                 24     -0.980885  5 H  s          
    21     -0.959490  4 N  py                 8     -0.808624  1 C  py         
    26      0.776567  6 H  s                 28      0.776567  7 H  s          
    19     -0.764686  4 N  s                 13     -0.640317  3 H  s          

 Vector   26  Occ=0.000000D+00  E= 1.011782D+00  Symmetry=a"
              MO Center= -2.5D-01, -2.9D-01, -6.2D-15, r^2= 3.0D+00
   Bfn.  Coefficient  Atom+Function         Bfn.  Coefficient  Atom+Function  
  ----- ------------  ---------------      ----- ------------  ---------------
    22      1.144958  4 N  pz                11     -0.752166  2 H  s          
    24      0.752166  5 H  s                 10      0.736015  2 H  s          
    23     -0.736015  5 H  s                 25      0.641186  6 H  s          
    27     -0.641186  7 H  s                  5     -0.453081  1 C  pz         
    18     -0.141863  4 N  pz                 9     -0.103470  1 C  pz         

 Vector   27  Occ=0.000000D+00  E= 1.095689D+00  Symmetry=a'
              MO Center=  1.2D-01, -2.4D-01,  1.5D-15, r^2= 2.9D+00
   Bfn.  Coefficient  Atom+Function         Bfn.  Coefficient  Atom+Function  
  ----- ------------  ---------------      ----- ------------  ---------------
     6      4.229252  1 C  s                  2     -1.862933  1 C  s          
    19      1.046853  4 N  s                 15     -0.989973  4 N  s          
    13     -0.940915  3 H  s                 11     -0.800265  2 H  s          
    24     -0.800265  5 H  s                 21      0.706134  4 N  py         
    26     -0.686643  6 H  s                 28     -0.686643  7 H  s          

 Vector   28  Occ=0.000000D+00  E= 1.478109D+00  Symmetry=a'
              MO Center=  8.7D-02,  1.1D-01, -2.8D-16, r^2= 2.2D+00
   Bfn.  Coefficient  Atom+Function         Bfn.  Coefficient  Atom+Function  
  ----- ------------  ---------------      ----- ------------  ---------------
     6      4.484523  1 C  s                 19     -4.305288  4 N  s          
    15      1.698721  4 N  s                 21      1.364877  4 N  py         
     2     -1.101212  1 C  s                  8      1.059902  1 C  py         
    12     -0.448091  3 H  s                 11     -0.445303  2 H  s          
    24     -0.445303  5 H  s                 10     -0.414041  2 H  s          


     ---------------------------------------------
      Total Density - Mulliken Population Analysis
     ---------------------------------------------

    Atom       Charge   Shell Charges
 -----------   ------   -------------------------------------------------------
    1 C    6     6.25   2.00  0.68  2.11  0.61  0.86
    2 H    1     0.86   0.54  0.32
    3 H    1     0.89   0.54  0.35
    4 N    7     7.70   2.00  0.77  2.54  0.84  1.56
    5 H    1     0.86   0.54  0.32
    6 H    1     0.72   0.53  0.19
    7 H    1     0.72   0.53  0.19

     -------------------------------------------
      Total Density - Lowdin Population Analysis
     -------------------------------------------

    Atom       Charge   Shell Charges
 -----------   ------   -------------------------------------------------------
    1 C    6     6.22   1.99  0.56  1.90  0.44  1.33
    2 H    1     0.89   0.52  0.37
    3 H    1     0.93   0.53  0.40
    4 N    7     7.48   1.99  0.69  2.40  0.56  1.83
    5 H    1     0.89   0.52  0.37
    6 H    1     0.80   0.50  0.29
    7 H    1     0.80   0.50  0.29

 center of mass
 --------------
 x =   0.03464603 y =   0.05236754 z =   0.00000000

 moments of inertia (a.u.)
 ------------------
          83.940994547758          -0.577953969472           0.000000000000
          -0.577953969472          17.096985496445           0.000000000000
           0.000000000000           0.000000000000          79.687333442418

     Multipole analysis of the density
     ---------------------------------

     L   x y z        total         alpha         beta         nuclear
     -   - - -        -----         -----         ----         -------
     0   0 0 0     -0.000000     -9.000000     -9.000000     18.000000

     1   1 0 0      0.493736     -0.327792     -0.327792      1.149320
     1   0 1 0     -0.026876      0.035175      0.035175     -0.097226
     1   0 0 1      0.000000      0.000000      0.000000      0.000000

     2   2 0 0    -11.404438     -8.892216     -8.892216      6.379994
     2   1 1 0      1.488710      0.010809      0.010809      1.467092
     2   1 0 1      0.000000      0.000000      0.000000      0.000000
     2   0 2 0     -9.773879    -29.066908    -29.066908     48.359937
     2   0 1 1      0.000000      0.000000      0.000000      0.000000
     2   0 0 2     -9.114468     -9.853453     -9.853453     10.592437


 Parallel integral file used       8 records with       0 large values



                                   WFX file creator
                                -------------------



                                   WFX file creator
                                -------------------



                                   WFX file creator
                                -------------------



                                   WFX file creator
                                -------------------



                                   WFX file creator
                                -------------------



                                   WFX file creator
                                -------------------



                                   WFX file creator
                                -------------------



                                   WFX file creator
                                -------------------

  using vec .//job.movecs                                                                                                                                                                                                                                                  @@
  using vec .//job.movecs                                                                                                                                                                                                                                                  @@
  using vec .//job.movecs                                                                                                                                                                                                                                                  @@
  using vec .//job.movecs                                                                                                                                                                                                                                                  @@
  using vec .//job.movecs                                                                                                                                                                                                                                                  @@
  using vec .//job.movecs                                                                                                                                                                                                                                                  @@
  using vec .//job.movecs                                                                                                                                                                                                                                                  @@
  using vec .//job.movecs                                                                                                                                                                                                                                                  @@
              Total Energy E =   -95.825445416304191     
            Kinetic Energy V =    95.256542877167291     
          Potential Energy T =   -191.08198829347148     
             Virial ABS(V/T) =    2.0059723198213324     
    Name of Final wnf-file  .//job.wfn                                                                      
 MOLDEN output will be written to the file .//job.molden
  do_norm_janpa  F
  do_norm_nwchem  F
  molden scftype: RHF                  spinref:                     1
  
  Molden file created 
  If you plan to use JANPA 
    run the .molden file through 
    molden2molden.jar -NormalizeBF to get the
    correct Molden normalization 
   

 Task  times  cpu:        0.1s     wall:        0.1s


                                NWChem Input Module
                                -------------------



  Limits (a.u.) specified for the density plot:
  ---------------------------------------------

        From        To      # of spacings
X    -7.55891     7.55891        20
Y    -7.55891     7.55891        20
Z    -7.55891     7.55891        20

  Total number of grid points =                  9261

  1-st set of MOs      : .//job.movecs
  Output is written to : nw_dens.cube
  Type of picture      : CHARGE DENSITY
  Format used          : Gaussian9x Cube
  Spin                 : TOTAL   
  The density is computed using all orbitals
  The density is computed on the specified grid
  Grid minima (bohr)  -7.558906 -7.558906 -7.558906
  Grid maxima (bohr)   7.558906  7.558906  7.558906
  max element    40.574360115126154     

  Tol_rho              =                    0.10000E-39
  Sum of elements      =                       90.50992
  Integration volume   =                        0.43189
  Integrated Charge    =                       39.09066

 Task  times  cpu:        0.0s     wall:        0.0s


                                NWChem Input Module
                                -------------------


 Summary of allocated global arrays
-----------------------------------
  No active global arrays


MA_summarize_allocated_blocks: starting scan ...
MA_summarize_allocated_blocks: scan completed: 0 heap blocks, 0 stack blocks
MA usage statistics:

	allocation statistics:
					      heap	     stack
					      ----	     -----
	current number of blocks	         0	         0
	maximum number of blocks	        26	        62
	current total bytes		         0	         0
	maximum total bytes		   2866800	  66615784
	maximum total K-bytes		      2867	     66616
	maximum total M-bytes		         3	        67


                                     CITATION
                                     --------
                Please cite the following reference when publishing
                           results obtained with NWChem:

          E. Apra, E. J. Bylaska, W. A. de Jong, N. Govind, K. Kowalski,
       T. P. Straatsma, M. Valiev, H. J. J. van Dam, Y. Alexeev, J. Anchell,
       V. Anisimov, F. W. Aquino, R. Atta-Fynn, J. Autschbach, N. P. Bauman,
     J. C. Becca, D. E. Bernholdt, K. Bhaskaran-Nair, S. Bogatko, P. Borowski,
         J. Boschen, J. Brabec, A. Bruner, E. Cauet, Y. Chen, G. N. Chuev,
      C. J. Cramer, J. Daily, M. J. O. Deegan, T. H. Dunning Jr., M. Dupuis,
   K. G. Dyall, G. I. Fann, S. A. Fischer, A. Fonari, H. Fruchtl, L. Gagliardi,
      J. Garza, N. Gawande, S. Ghosh, K. Glaesemann, A. W. Gotz, J. Hammond,
       V. Helms, E. D. Hermes, K. Hirao, S. Hirata, M. Jacquelin, L. Jensen,
   B. G. Johnson, H. Jonsson, R. A. Kendall, M. Klemm, R. Kobayashi, V. Konkov,
      S. Krishnamoorthy, M. Krishnan, Z. Lin, R. D. Lins, R. J. Littlefield,
      A. J. Logsdail, K. Lopata, W. Ma, A. V. Marenich, J. Martin del Campo,
   D. Mejia-Rodriguez, J. E. Moore, J. M. Mullin, T. Nakajima, D. R. Nascimento,
    J. A. Nichols, P. J. Nichols, J. Nieplocha, A. Otero-de-la-Roza, B. Palmer,
    A. Panyala, T. Pirojsirikul, B. Peng, R. Peverati, J. Pittner, L. Pollack,
   R. M. Richard, P. Sadayappan, G. C. Schatz, W. A. Shelton, D. W. Silverstein,
   D. M. A. Smith, T. A. Soares, D. Song, M. Swart, H. L. Taylor, G. S. Thomas,
            V. Tipparaju, D. G. Truhlar, K. Tsemekhman, T. Van Voorhis,
      A. Vazquez-Mayagoitia, P. Verma, O. Villa, A. Vishnu, K. D. Vogiatzis,
        D. Wang, J. H. Weare, M. J. Williamson, T. L. Windus, K. Wolinski,
        A. T. Wong, Q. Wu, C. Yang, Q. Yu, M. Zacharias, Z. Zhang, Y. Zhao,
                                and R. J. Harrison
                        "NWChem: Past, present, and future
                         J. Chem. Phys. 152, 184102 (2020)
                               doi:10.1063/5.0004997

                                      AUTHORS
                                      -------
  E. Apra, E. J. Bylaska, N. Govind, K. Kowalski, M. Valiev, D. Mejia-Rodriguez,
       A. Kunitsa, N. P. Bauman, A. Panyala, W. A. de Jong, T. P. Straatsma,
   H. J. J. van Dam, D. Wang, T. L. Windus, J. Hammond, J. Autschbach, A. Woods,
    K. Bhaskaran-Nair, J. Brabec, K. Lopata, S. A. Fischer, S. Krishnamoorthy,
     M. Jacquelin, W. Ma, M. Klemm, O. Villa, Y. Chen, V. Anisimov, F. Aquino,
     S. Hirata, M. T. Hackler, E. Hermes, L. Jensen, J. E. Moore, J. C. Becca,
      V. Konjkov, T. Risthaus, M. Malagoli, A. Marenich, A. Otero-de-la-Roza,
        J. Mullin, P. Nichols, R. Peverati, J. Pittner, Y. Zhao, P.-D. Fan,
        A. Fonari, M. J. Williamson, R. J. Harrison, J. R. Rehr, M. Dupuis,
     D. Silverstein, D. M. A. Smith, J. Nieplocha, V. Tipparaju, M. Krishnan,
     B. E. Van Kuiken, A. Vazquez-Mayagoitia, M. Swart, Q. Wu, T. Van Voorhis,
     A. A. Auer, M. Nooijen, L. D. Crosby, E. Brown, G. Cisneros, G. I. Fann,
   H. Fruchtl, J. Garza, K. Hirao, R. A. Kendall, J. A. Nichols, K. Tsemekhman,
    K. Wolinski, J. Anchell, D. E. Bernholdt, P. Borowski, T. Clark, D. Clerc,
   H. Dachsel, M. J. O. Deegan, K. Dyall, D. Elwood, E. Glendening, M. Gutowski,
   A. C. Hess, J. Jaffe, B. G. Johnson, J. Ju, R. Kobayashi, R. Kutteh, Z. Lin,
   R. Littlefield, X. Long, B. Meng, T. Nakajima, S. Niu, L. Pollack, M. Rosing,
   K. Glaesemann, G. Sandrone, M. Stave, H. Taylor, G. Thomas, J. H. van Lenthe,
                               A. T. Wong, Z. Zhang.

 Total times  cpu:        7.0s     wall:        7.0s
