[Molden Format]
[Atoms] AU
   C     1    6      0.0443354352    -1.3516131419     0.0000000000
   H     2    1     -0.9527861747    -2.0742596130     1.6639827991
   H     3    1      1.9598053131    -2.1894583092     0.0000000000
   N     4    7     -0.0499051896     1.4060731556     0.0000000000
   H     5    1     -0.9527861747    -2.0742596130    -1.6639827991
   H     6    1      0.5892055731     2.2539590556    -1.5897735639
   H     7    1      0.5892055731     2.2539590556     1.5897735639
[GTO]
    1  0
  s      6  0
      3047.5249000000         0.0018347000
       457.3695100000         0.0140373000
       103.9486900000         0.0688426000
        29.2101550000         0.2321844000
         9.2866630000         0.4679413000
         3.1639270000         0.3623120000
  s      3  0
         7.8682724000        -0.1193324000
         1.8812885000        -0.1608542000
         0.5442493000         1.1434564000
  p      3  0
         7.8682724000         0.0689991000
         1.8812885000         0.3164240000
         0.5442493000         0.7443083000
  s      1  0
         0.1687144000         1.0000000000
  p      1  0
         0.1687144000         1.0000000000

    2  0
  s      3  0
        18.7311370000         0.0334946000
         2.8253937000         0.2347269500
         0.6401217000         0.8137573300
  s      1  0
         0.1612778000         1.0000000000

    3  0
  s      3  0
        18.7311370000         0.0334946000
         2.8253937000         0.2347269500
         0.6401217000         0.8137573300
  s      1  0
         0.1612778000         1.0000000000

    4  0
  s      6  0
      4173.5110000000         0.0018348000
       627.4579000000         0.0139950000
       142.9021000000         0.0685870000
        40.2343300000         0.2322410000
        12.8202100000         0.4690700000
         4.3904370000         0.3604550000
  s      3  0
        11.6263580000        -0.1149610000
         2.7162800000        -0.1691180000
         0.7722180000         1.1458520000
  p      3  0
        11.6263580000         0.0675800000
         2.7162800000         0.3239070000
         0.7722180000         0.7408950000
  s      1  0
         0.2120313000         1.0000000000
  p      1  0
         0.2120313000         1.0000000000

    5  0
  s      3  0
        18.7311370000         0.0334946000
         2.8253937000         0.2347269500
         0.6401217000         0.8137573300
  s      1  0
         0.1612778000         1.0000000000

    6  0
  s      3  0
        18.7311370000         0.0334946000
         2.8253937000         0.2347269500
         0.6401217000         0.8137573300
  s      1  0
         0.1612778000         1.0000000000

    7  0
  s      3  0
        18.7311370000         0.0334946000
         2.8253937000         0.2347269500
         0.6401217000         0.8137573300
  s      1  0
         0.1612778000         1.0000000000

[MO]
Sym= a'   
Ene=  -0.14295370673862E+02
Spin= Alpha
Occup=       2.00000000000000
     1   -0.0000113574067217
     2   -0.0011254948713902
     3    0.0000776645924183
     4   -0.0001016811022172
     5   -0.0000000000000000
     6    0.0078633874741692
     7   -0.0000393626228491
     8    0.0038018897981607
     9   -0.0000000000000000
    10   -0.0003799962194368
    11   -0.0003651569707039
    12   -0.0004617028906452
    13   -0.0001131260482240
    14    0.9952311368489640
    15    0.0315807809260525
    16    0.0016202480796993
    17   -0.0004110562262941
    18   -0.0000000000000000
    19   -0.0214607544943666
    20   -0.0020567488024426
    21    0.0026604405687443
    22   -0.0000000000000000
    23   -0.0003799962194368
    24   -0.0003651569707039
    25   -0.0002029984629466
    26    0.0035117103833890
    27   -0.0002029984629466
    28    0.0035117103833890
Sym= a'   
Ene=  -0.10193917716748E+02
Spin= Alpha
Occup=       2.00000000000000
     1    0.9952739042752602
     2    0.0361971252606211
     3   -0.0000513851400277
     4   -0.0000837174694065
     5    0.0000000000000000
     6   -0.0299490652789629
     7    0.0004866371738567
     8    0.0000845950262898
     9    0.0000000000000001
    10   -0.0005672023165840
    11    0.0059490808751055
    12   -0.0006090718788677
    13    0.0056049054745695
    14    0.0000156634025650
    15   -0.0006909006541704
    16    0.0000191816845678
    17    0.0007176663793708
    18    0.0000000000000000
    19    0.0044500833972050
    20   -0.0001490812919039
    21   -0.0026315827159304
    22    0.0000000000000000
    23   -0.0005672023165840
    24    0.0059490808751056
    25   -0.0001386894310852
    26    0.0007711329373031
    27   -0.0001386894310852
    28    0.0007711329373030
Sym= a'   
Ene=  -0.86467350286078E+00
Spin= Alpha
Occup=       2.00000000000000
     1   -0.0993796990046174
     2    0.1940122745507885
     3    0.0009192719046463
     4    0.0966936534330028
     5    0.0000000000000000
     6    0.1107707782028747
     7    0.0025058487920944
     8   -0.0081589697172171
     9    0.0000000000000001
    10    0.0423624911558818
    11    0.0050350584662589
    12    0.0407741784958308
    13    0.0002408471439975
    14   -0.1857349989425930
    15    0.3867357442290886
    16    0.0770063666405356
    17   -0.0379110961647648
    18    0.0000000000000001
    19    0.3931884865183866
    20    0.0387450956946677
    21   -0.0219105216051906
    22   -0.0000000000000001
    23    0.0423624911558818
    24    0.0050350584662592
    25    0.1228021588347819
    26    0.0086608352127906
    27    0.1228021588347819
    28    0.0086608352127907
Sym= a'   
Ene=  -0.65894698406479E+00
Spin= Alpha
Occup=       2.00000000000000
     1   -0.1700195305887775
     2    0.3371253941011987
     3   -0.0150467865125050
     4   -0.0809374364429175
     5    0.0000000000000000
     6    0.3387464207062147
     7    0.0102468945345018
     8   -0.0251744565187950
     9    0.0000000000000005
    10    0.1360235182124945
    11    0.0438548413021193
    12    0.1263670252600413
    13    0.0309504938565012
    14    0.0773710495191558
    15   -0.1642527142984084
    16   -0.0667694925868435
    17   -0.1724360670628726
    18    0.0000000000000002
    19   -0.2129171134717092
    20   -0.0349470175194763
    21   -0.0559874821003736
    22    0.0000000000000002
    23    0.1360235182124944
    24    0.0438548413021202
    25   -0.1097308206109298
    26   -0.0318599317800361
    27   -0.1097308206109296
    28   -0.0318599317800362
Sym= a"   
Ene=  -0.49118476867810E+00
Spin= Alpha
Occup=       2.00000000000000
     1    0.0000000000000002
     2    0.0000000000000001
     3    0.0000000000000021
     4    0.0000000000000020
     5    0.2176675677082578
     6   -0.0000000000000033
     7    0.0000000000000018
     8    0.0000000000000002
     9    0.1058914649741748
    10    0.0920542070876761
    11    0.0501521540197663
    12    0.0000000000000000
    13   -0.0000000000000001
    14   -0.0000000000000002
    15    0.0000000000000003
    16   -0.0000000000000005
    17   -0.0000000000000022
    18    0.4268202262007126
    19    0.0000000000000017
    20   -0.0000000000000005
    21   -0.0000000000000017
    22    0.1937764509518209
    23   -0.0920542070876784
    24   -0.0501521540197639
    25   -0.2159474710920358
    26   -0.1269486861351986
    27    0.2159474710920345
    28    0.1269486861351976
Sym= a'   
Ene=  -0.43229262935342E+00
Spin= Alpha
Occup=       2.00000000000000
     1    0.0059626694376106
     2   -0.0025188947752704
     3   -0.2041037082152546
     4    0.3474707135356364
     5   -0.0000000000000011
     6   -0.0315111039861515
     7   -0.0679061081644747
     8    0.1239503403831476
     9   -0.0000000000000009
    10   -0.0219019083404972
    11   -0.0119631059078533
    12   -0.1965667368797458
    13   -0.1641908497503605
    14   -0.0246650548131910
    15    0.0587429813404150
    16   -0.1422121360086357
    17   -0.3648944145741752
    18   -0.0000000000000011
    19    0.0821175404303812
    20   -0.0841165315528887
    21   -0.1810356611569817
    22   -0.0000000000000007
    23   -0.0219019083404962
    24   -0.0119631059078535
    25   -0.1074580582283056
    26   -0.0766615292279925
    27   -0.1074580582283065
    28   -0.0766615292279922
Sym= a'   
Ene=  -0.40281093947687E+00
Spin= Alpha
Occup=       2.00000000000000
     1   -0.0053766151745637
     2    0.0138445026676254
     3    0.3888554074317270
     4    0.1920986650799647
     5    0.0000000000000016
     6   -0.0019381130979252
     7    0.1791797434755599
     8    0.0732339506454738
     9    0.0000000000000004
    10   -0.1575098461666047
    11   -0.1264525950256042
    12    0.1840134505642579
    13    0.1530564152635802
    14    0.0050317919496962
    15   -0.0136557965304910
    16    0.1131527962061604
    17   -0.2281944459581076
    18   -0.0000000000000036
    19    0.0075716596151381
    20    0.0722178794085277
    21   -0.1301437966590139
    22   -0.0000000000000020
    23   -0.1575098461666066
    24   -0.1264525950256069
    25   -0.0579987956153935
    26   -0.0454853234697547
    27   -0.0579987956153975
    28   -0.0454853234697567
Sym= a"   
Ene=  -0.36796510632269E+00
Spin= Alpha
Occup=       2.00000000000000
     1    0.0000000000000000
     2    0.0000000000000004
     3   -0.0000000000000024
     4   -0.0000000000000008
     5    0.4059605563964790
     6   -0.0000000000000007
     7   -0.0000000000000009
     8   -0.0000000000000009
     9    0.1837685226216614
    10    0.2293380826497606
    11    0.2040189810439034
    12   -0.0000000000000016
    13   -0.0000000000000019
    14   -0.0000000000000000
    15    0.0000000000000002
    16   -0.0000000000000006
    17    0.0000000000000009
    18   -0.2259835987066043
    19    0.0000000000000001
    20   -0.0000000000000003
    21    0.0000000000000001
    22   -0.1163990624613517
    23   -0.2293380826497581
    24   -0.2040189810439015
    25    0.1473273436389834
    26    0.1157096600116632
    27   -0.1473273436389824
    28   -0.1157096600116627
Sym= a'   
Ene=  -0.20592862551381E+00
Spin= Alpha
Occup=       2.00000000000000
     1   -0.0083064428011699
     2    0.0233074452468678
     3   -0.1218737028122285
     4    0.0416041130097641
     5   -0.0000000000000001
     6   -0.0237470871085988
     7   -0.0206548937919398
     8   -0.0122064524243882
     9   -0.0000000000000000
    10    0.0725501759708543
    11    0.0942399038088712
    12   -0.1511801522258998
    13   -0.2229460051373485
    14    0.0467758710242288
    15   -0.1110670812308128
    16    0.5516718946833700
    17   -0.1030333539324780
    18    0.0000000000000006
    19   -0.1568584158022900
    20    0.4922562088941418
    21   -0.1180506363825439
    22    0.0000000000000003
    23    0.0725501759708545
    24    0.0942399038088714
    25    0.0385475564593342
    26    0.0365978057635158
    27    0.0385475564593349
    28    0.0365978057635163
Sym= a'   
Ene=   0.87886854575931E-01
Spin= Alpha
Occup=       0.00000000000000
     1   -0.0368637911787435
     2    0.0369019292490840
     3    0.0016772916085921
     4   -0.1790456006319107
     5   -0.0000000000000000
     6    0.7240232049888577
     7   -0.1120607103485517
     8   -0.5374790743673027
     9   -0.0000000000000000
    10   -0.0116167260034398
    11   -0.4723246660593411
    12   -0.0034949236151142
    13   -0.4003653951971574
    14   -0.1100802199616938
    15    0.1698995219917668
    16    0.1310141913480512
    17    0.0901256380265703
    18    0.0000000000000002
    19    1.5371120782018932
    20    0.3138742468097034
    21    0.2256727291677989
    22    0.0000000000000004
    23   -0.0116167260034396
    24   -0.4723246660593414
    25   -0.0669719597144162
    26   -0.9803445079275006
    27   -0.0669719597144160
    28   -0.9803445079275018
Sym= a'   
Ene=   0.13643321956675E+00
Spin= Alpha
Occup=       0.00000000000000
     1   -0.1529887389864250
     2    0.1818636282796266
     3    0.0201700123869860
     4   -0.0702286265005421
     5    0.0000000000000001
     6    2.4747934437741903
     7    0.0230528829729827
     8   -0.1337334691741462
     9    0.0000000000000001
    10   -0.0251690509140285
    11   -1.0380494652393628
    12   -0.0275224116906886
    13   -1.1061252703595605
    14    0.0647446096289202
    15   -0.0779460732910933
    16   -0.0780419581565279
    17    0.0343268235673827
    18    0.0000000000000003
    19   -0.9932679674983294
    20   -0.1569582559291549
    21    0.2230138879814571
    22    0.0000000000000002
    23   -0.0251690509140286
    24   -1.0380494652393628
    25    0.0462249241296447
    26    0.4286091898076633
    27    0.0462249241296450
    28    0.4286091898076635
Sym= a"   
Ene=   0.15024816932976E+00
Spin= Alpha
Occup=       0.00000000000000
     1   -0.0000000000000001
     2   -0.0000000000000002
     3   -0.0000000000000011
     4   -0.0000000000000001
     5   -0.2920987266005448
     6    0.0000000000000024
     7   -0.0000000000000032
     8    0.0000000000000010
     9   -0.7387494915939469
    10    0.0746814672394635
    11    0.9657850813962576
    12    0.0000000000000002
    13    0.0000000000000038
    14    0.0000000000000000
    15   -0.0000000000000002
    16    0.0000000000000001
    17    0.0000000000000003
    18   -0.2895037745359343
    19   -0.0000000000000003
    20    0.0000000000000009
    21    0.0000000000000013
    22   -0.6718423255450473
    23   -0.0746814672394632
    24   -0.9657850813962626
    25   -0.0787200541774834
    26   -1.0475567650711306
    27    0.0787200541774837
    28    1.0475567650711295
Sym= a'   
Ene=   0.17971664677723E+00
Spin= Alpha
Occup=       0.00000000000000
     1    0.0006959642288581
     2    0.0050418212278054
     3   -0.4470246245884375
     4   -0.0169495360083308
     5    0.0000000000000011
     6    0.0274151252299068
     7   -1.3479599023918383
     8   -0.1014867826058455
     9    0.0000000000000020
    10   -0.0457666460508288
    11   -0.9414978854722860
    12    0.0872725503140224
    13    1.6884950449643135
    14    0.0062073873001931
    15   -0.0159298174846262
    16    0.0576770323715161
    17   -0.0768639083596762
    18    0.0000000000000011
    19   -0.0644306662858334
    20    0.2625922692228809
    21   -0.1000228043805037
    22    0.0000000000000018
    23   -0.0457666460508288
    24   -0.9414978854722815
    25    0.0163967662479563
    26    0.1102151950825194
    27    0.0163967662479562
    28    0.1102151950825145
Sym= a"   
Ene=   0.19197465873259E+00
Spin= Alpha
Occup=       0.00000000000000
     1   -0.0000000000000000
     2   -0.0000000000000000
     3   -0.0000000000000001
     4   -0.0000000000000001
     5    0.2889556618196951
     6    0.0000000000000007
     7   -0.0000000000000003
     8   -0.0000000000000003
     9    1.2144632433498583
    10   -0.0739129908038468
    11   -1.2136264604151348
    12   -0.0000000000000000
    13   -0.0000000000000001
    14   -0.0000000000000000
    15    0.0000000000000001
    16    0.0000000000000001
    17    0.0000000000000001
    18   -0.2936892568472946
    19    0.0000000000000005
    20    0.0000000000000002
    21    0.0000000000000001
    22   -0.9177184909417934
    23    0.0739129908038468
    24    1.2136264604151334
    25   -0.0191925970614675
    26   -1.0096888164135287
    27    0.0191925970614675
    28    1.0096888164135278
Sym= a'   
Ene=   0.24201457513862E+00
Spin= Alpha
Occup=       0.00000000000000
     1   -0.0633676471294291
     2    0.0683479622446790
     3   -0.0365007323581843
     4    0.3117201034583207
     5    0.0000000000000006
     6    1.0766431061814408
     7   -0.2644022592312240
     8    1.7120755038415958
     9    0.0000000000000011
    10    0.0656098869491831
    11    0.0787331160182776
    12    0.0497001386077221
    13    0.4937776173793619
    14    0.0494810633961910
    15   -0.0601246606906992
    16    0.0679376928222645
    17    0.4196409624343546
    18    0.0000000000000007
    19   -0.8623433107343720
    20    0.1877213111576334
    21    1.3916136592754558
    22   -0.0000000000000003
    23    0.0656098869491829
    24    0.0787331160182802
    25   -0.0333526679876562
    26   -0.6296740384583207
    27   -0.0333526679876553
    28   -0.6296740384583224
Sym= a'   
Ene=   0.57103080552104E+00
Spin= Alpha
Occup=       0.00000000000000
     1    0.0350233877690787
     2   -0.3257050536881921
     3   -0.1370742907036315
     4   -1.0587043431314223
     5   -0.0000000000000005
     6    0.0744131859479025
     7    0.2912713214775062
     8    1.4693493747540760
     9    0.0000000000000014
    10    0.1280482582528013
    11    0.1960597413339983
    12    0.0578830563132465
    13    0.0723056793150438
    14   -0.0342516977476590
    15    0.1764252987848019
    16    0.0328870732902995
    17   -0.0856801832714527
    18    0.0000000000000003
    19   -0.6929894260589970
    20   -0.0976118031702342
    21   -0.0572851461882316
    22   -0.0000000000000004
    23    0.1280482582528022
    24    0.1960597413339985
    25    0.0137251473692995
    26   -0.0572377854604809
    27    0.0137251473692986
    28   -0.0572377854604796
Sym= a"   
Ene=   0.57351534550200E+00
Spin= Alpha
Occup=       0.00000000000000
     1    0.0000000000000000
     2    0.0000000000000010
     3   -0.0000000000000008
     4    0.0000000000000013
     5   -0.7730530403905048
     6   -0.0000000000000031
     7    0.0000000000000022
     8   -0.0000000000000017
     9    1.6388690156049128
    10   -0.4138804311413630
    11   -0.3329581972604338
    12   -0.0000000000000006
    13   -0.0000000000000002
    14    0.0000000000000000
    15   -0.0000000000000005
    16   -0.0000000000000002
    17    0.0000000000000010
    18    0.0321432745417890
    19    0.0000000000000017
    20   -0.0000000000000004
    21   -0.0000000000000014
    22   -0.0741357889195692
    23    0.4138804311413635
    24    0.3329581972604353
    25    0.2365389896062866
    26    0.0047297459490313
    27   -0.2365389896062866
    28   -0.0047297459490309
Sym= a'   
Ene=   0.60713689232719E+00
Spin= Alpha
Occup=       0.00000000000000
     1   -0.0057363917665341
     2    0.0085910452986980
     3   -0.7380003204983582
     4    0.1325583871631985
     5    0.0000000000000010
     6   -0.0854623139175866
     7    1.7323611193416319
     8   -0.3496737968779530
     9   -0.0000000000000022
    10    0.1948731842321416
    11    0.2308492617251245
    12   -0.4945853007047858
    13   -0.5531272452397351
    14   -0.0155797558758457
    15    0.0392292519945951
    16   -0.3131433185400319
    17    0.1472936246843925
    18    0.0000000000000000
    19    0.2908176869473110
    20   -0.0515407947082285
    21   -0.1573295914903091
    22    0.0000000000000002
    23    0.1948731842321405
    24    0.2308492617251235
    25   -0.0941104269955437
    26    0.0050828687165307
    27   -0.0941104269955431
    28    0.0050828687165304
Sym= a'   
Ene=   0.76101568218658E+00
Spin= Alpha
Occup=       0.00000000000000
     1    0.0148648439239431
     2   -0.0916940987194950
     3   -0.3163333990819615
     4    0.0487463838126519
     5    0.0000000000000000
     6    0.7425262875765560
     7    0.9060447865311534
     8    0.1502105268176314
     9    0.0000000000000005
    10    0.0267633525567081
    11    0.1294254660275941
    12   -0.0092398219320120
    13   -0.5223814246571987
    14   -0.0069241044431048
    15    0.0552512988349451
    16    0.7988724314184635
    17   -0.4269190498970173
    18    0.0000000000000000
    19   -0.2397488686058345
    20   -0.9390867112635192
    21    0.9042185394652410
    22   -0.0000000000000000
    23    0.0267633525567082
    24    0.1294254660275946
    25   -0.3075469514942901
    26    0.0982334031342122
    27   -0.3075469514942902
    28    0.0982334031342121
Sym= a'   
Ene=   0.80115902979274E+00
Spin= Alpha
Occup=       0.00000000000000
     1    0.0338449706790939
     2   -0.1802395748398233
     3    0.4010070554695069
     4   -0.0438452382612474
     5   -0.0000000000000036
     6    0.9788688595118598
     7   -1.0012169023460089
     8    0.5761676212174868
     9    0.0000000000000096
    10    0.2361682206339550
    11   -0.4223587377262460
    12   -0.1382181083110639
    13    0.6767776596534179
    14   -0.0396142282904689
    15    0.1374694916404314
    16   -0.4495447182037662
    17   -0.5853801692616510
    18    0.0000000000000011
    19   -0.0749598388137599
    20    0.9470168183325327
    21    1.4798259381909942
    22   -0.0000000000000068
    23    0.2361682206339524
    24   -0.4223587377262347
    25   -0.4664707410630664
    26   -0.2440907245039333
    27   -0.4664707410630591
    28   -0.2440907245039352
Sym= a"   
Ene=   0.82494142219212E+00
Spin= Alpha
Occup=       0.00000000000000
     1   -0.0000000000000002
     2    0.0000000000000009
     3   -0.0000000000000017
     4   -0.0000000000000000
     5   -0.6735891559770127
     6   -0.0000000000000048
     7    0.0000000000000044
     8   -0.0000000000000031
     9    1.6245897509135383
    10    0.4478935197214819
    11   -1.1683634076700511
    12    0.0000000000000008
    13   -0.0000000000000033
    14    0.0000000000000002
    15   -0.0000000000000006
    16    0.0000000000000022
    17    0.0000000000000026
    18    0.4418203459620905
    19    0.0000000000000004
    20   -0.0000000000000045
    21   -0.0000000000000075
    22   -1.5197736481855906
    23   -0.4478935197214842
    24    1.1683634076700551
    25   -0.4979173209984028
    26   -0.2129380749552056
    27    0.4979173209984074
    28    0.2129380749552083
Sym= a'   
Ene=   0.88380103516877E+00
Spin= Alpha
Occup=       0.00000000000000
     1   -0.0633138130615555
     2    0.2262809827409629
     3    0.3860727988481714
     4   -0.2454649185268239
     5    0.0000000000000002
     6   -0.5136283167449369
     7   -0.6862365730478163
     8   -0.2114575913032585
     9   -0.0000000000000010
    10   -0.3067890616696515
    11   -0.1376879944390163
    12   -0.8511806236532862
    13    1.0389806022393544
    14   -0.0273155744814538
    15   -0.0551806663363318
    16    0.1834408619251069
    17    0.4590562860735405
    18   -0.0000000000000002
    19    0.2508911815523146
    20    0.0072028419995296
    21   -0.5538345687362398
    22    0.0000000000000004
    23   -0.3067890616696515
    24   -0.1376879944390178
    25   -0.5061030996148298
    26    0.4154997095862747
    27   -0.5061030996148302
    28    0.4154997095862744
Sym= a"   
Ene=   0.94554345534800E+00
Spin= Alpha
Occup=       0.00000000000000
     1   -0.0000000000000000
     2    0.0000000000000001
     3   -0.0000000000000006
     4   -0.0000000000000002
     5   -0.2729565623110144
     6   -0.0000000000000014
     7    0.0000000000000016
     8   -0.0000000000000003
     9    0.3196485333531044
    10    0.1127405457136119
    11   -0.3285205624035037
    12    0.0000000000000001
    13   -0.0000000000000009
    14    0.0000000000000000
    15   -0.0000000000000001
    16    0.0000000000000006
    17    0.0000000000000007
    18   -0.9779407506329102
    19   -0.0000000000000002
    20   -0.0000000000000014
    21   -0.0000000000000020
    22    1.3383705592849817
    23   -0.1127405457136125
    24    0.3285205624035051
    25   -0.5460717834761141
    26    1.2790977043890968
    27    0.5460717834761154
    28   -1.2790977043890959
Sym= a'   
Ene=   0.95388689424222E+00
Spin= Alpha
Occup=       0.00000000000000
     1    0.0161644767718348
     2   -0.1169481128904350
     3    0.5512290226952299
     4    0.0602962990392565
     5   -0.0000000000000000
     6    0.0464370836126272
     7   -0.3512020164475295
     8   -0.0936297992170595
     9   -0.0000000000000002
    10    0.5927048585124797
    11   -0.6741857438307717
    12   -0.7510992355365756
    13    1.0072789968462161
    14    0.0348138103827459
    15   -0.2106634531061336
    16    0.1857855937343462
    17   -0.1265353115679253
    18    0.0000000000000001
    19    0.1282927468301910
    20   -0.4833300775677581
    21   -0.1800880680927129
    22    0.0000000000000000
    23    0.5927048585124797
    24   -0.6741857438307715
    25    0.4577079810818163
    26   -0.1734070461796566
    27    0.4577079810818165
    28   -0.1734070461796568
Sym= a'   
Ene=   0.98188935733646E+00
Spin= Alpha
Occup=       0.00000000000000
     1    0.0393965576462018
     2   -1.0717856439542290
     3    0.1395953597007300
     4    0.3343171538433641
     5   -0.0000000000000006
     6    1.6681384215179813
     7   -0.2552801210545366
     8   -0.8086244057929117
     9    0.0000000000000004
    10    0.4661555035667935
    11   -0.9808849736588969
    12    0.3796470485177956
    13   -0.6403170783270091
    14   -0.0398448254777138
    15    0.4664839431919534
    16    0.1576542674455710
    17    0.5387652882814874
    18   -0.0000000000000000
    19   -0.7646857008806536
    20   -0.2013066887376821
    21   -0.9594904781773761
    22    0.0000000000000012
    23    0.4661555035667914
    24   -0.9808849736588943
    25   -0.3486852626408526
    26    0.7765666620318832
    27   -0.3486852626408539
    28    0.7765666620318833
Sym= a"   
Ene=   0.10117820873238E+01
Spin= Alpha
Occup=       0.00000000000000
     1   -0.0000000000000000
     2    0.0000000000000012
     3    0.0000000000000003
     4   -0.0000000000000003
     5   -0.4530812182982495
     6   -0.0000000000000002
     7   -0.0000000000000009
     8    0.0000000000000028
     9   -0.1034699313429086
    10    0.7360147651962821
    11   -0.7521664122629181
    12   -0.0000000000000005
    13    0.0000000000000017
    14    0.0000000000000000
    15   -0.0000000000000005
    16   -0.0000000000000006
    17   -0.0000000000000013
    18   -0.1418628553598234
    19    0.0000000000000005
    20    0.0000000000000015
    21    0.0000000000000041
    22    1.1449575350370385
    23   -0.7360147651962827
    24    0.7521664122629195
    25    0.6411858226877633
    26   -0.0151441087548153
    27   -0.6411858226877633
    28    0.0151441087548117
Sym= a'   
Ene=   0.10956894036922E+01
Spin= Alpha
Occup=       0.00000000000000
     1   -0.0549268109778767
     2   -1.8629328436044785
     3   -0.0747550984099852
     4    0.0101208115862882
     5   -0.0000000000000001
     6    4.2292522135231216
     7   -0.0434905546866510
     8   -0.2051947478786482
     9    0.0000000000000013
    10   -0.2994986804830080
    11   -0.8002647114560199
    12   -0.1450360876437528
    13   -0.9409153302445991
    14    0.0375211485637657
    15   -0.9899728427821236
    16   -0.0983163652345913
    17   -0.0884245845761123
    18    0.0000000000000001
    19    1.0468527675373995
    20    0.2939056690059908
    21    0.7061344573925135
    22   -0.0000000000000005
    23   -0.2994986804830082
    24   -0.8002647114560183
    25    0.0567257834690070
    26   -0.6866428764298007
    27    0.0567257834690070
    28   -0.6866428764298007
Sym= a'   
Ene=   0.14781088835428E+01
Spin= Alpha
Occup=       0.00000000000000
     1   -0.0933331654886321
     2   -1.1012120269823948
     3    0.0186847670176650
     4    0.1397120093953413
     5   -0.0000000000000008
     6    4.4845227489063229
     7   -0.0668303386186192
     8    1.0599017162046045
     9    0.0000000000000034
    10   -0.4140406687959731
    11   -0.4453034687484405
    12   -0.4480907980317796
    13   -0.3343030898382131
    14    0.0255142054146753
    15    1.6987212287031892
    16    0.0117197070366381
    17   -0.2030049491343189
    18    0.0000000000000001
    19   -4.3052881463308497
    20   -0.3139451506480099
    21    1.3648774360001967
    22   -0.0000000000000007
    23   -0.4140406687959735
    24   -0.4453034687484345
    25    0.3844998140032416
    26    0.2314827786239244
    27    0.3844998140032412
    28    0.2314827786239249
