 argument  1 = mo.nw
                                         
                                         


             Northwest Computational Chemistry Package (NWChem) 7.2.3
             --------------------------------------------------------


                    Environmental Molecular Sciences Laboratory
                       Pacific Northwest National Laboratory
                                Richland, WA 99352

                              Copyright (c) 1994-2022
                       Pacific Northwest National Laboratory
                            Battelle Memorial Institute

             NWChem is an open-source computational chemistry package
                        distributed under the terms of the
                      Educational Community License (ECL) 2.0
             A copy of the license is included with this distribution
                              in the LICENSE.TXT file

                                  ACKNOWLEDGMENT
                                  --------------

            This software and its documentation were developed at the
            EMSL at Pacific Northwest National Laboratory, a multiprogram
            national laboratory, operated for the U.S. Department of Energy
            by Battelle under Contract Number DE-AC05-76RL01830. Support
            for this work was provided by the Department of Energy Office
            of Biological and Environmental Research, Office of Basic
            Energy Sciences, and the Office of Advanced Scientific Computing.


           Job information
           ---------------

    hostname        = Tobiass-MBP.fritz.box
    program         = nwchem
    date            = Fri Apr 10 14:35:27 2026

    compiled        = Tue_Sep_16_16:48:38_2025
    source          = /private/tmp/nwchem-20250916-8472-x3pwf0/nwchem-7.2.3
    nwchem branch   = 7.2.3
    nwchem revision = d690e065
    ga revision     = 5.8.0
    use scalapack   = T
    input           = mo.nw
    prefix          = mo.
    data base       = .//mo.db
    status          = startup
    nproc           =        8
    time left       =     -1s



           Memory information
           ------------------

    heap     =  327679996 doubles =   2500.0 Mbytes
    stack    =  327680001 doubles =   2500.0 Mbytes
    global   =  655360000 doubles =   5000.0 Mbytes (distinct from heap & stack)
    total    = 1310719997 doubles =  10000.0 Mbytes
    verify   = yes
    hardfail = no 


           Directory information
           ---------------------

  0 permanent = ./
  0 scratch   = ./scr




                                NWChem Input Module
                                -------------------


                                methylamine MO Cube
                                -------------------

 Scaling coordinates for geometry "geometry" by  1.889725989
 (inverse scale =  0.529177249)

 CS  symmetry detected

          ------
          auto-z
          ------
  no constraints, skipping    0.0000000000000000     
  no constraints, skipping    0.0000000000000000     


                             Geometry "geometry" -> ""
                             -------------------------

 Output coordinates in angstroms (scale by  1.889725989 to convert to a.u.)

  No.       Tag          Charge          X              Y              Z
 ---- ---------------- ---------- -------------- -------------- --------------
    1 C                    6.0000    -0.00416807     0.71244725     0.00000000
    2 H                    1.0000    -0.52849637     1.09940279     0.88054184
    3 H                    1.0000     1.01325020     1.14703617     0.00000000
    4 N                    7.0000    -0.06665239    -0.74637191     0.00000000
    5 H                    1.0000    -0.52849637     1.09940279    -0.88054184
    6 H                    1.0000     0.26765884    -1.19796095    -0.84127200
    7 H                    1.0000     0.26765884    -1.19796095     0.84127200

      Atomic Mass 
      ----------- 

      C                 12.000000
      H                  1.007825
      N                 14.003070


 Effective nuclear repulsion energy (a.u.)      41.8690943464

            Nuclear Dipole moment (a.u.) 
            ----------------------------
        X                 Y               Z
 ---------------- ---------------- ----------------
     0.0000000000    -0.0000000000     0.0000000000

      Symmetry information
      --------------------

 Group name             Cs        
 Group number              2
 Group order               2
 No. of unique centers     5

      Symmetry unique atoms

     1    2    3    4    6



                                Z-matrix (autoz)
                                -------- 

 Units are Angstrom for bonds and degrees for angles

      Type          Name      I     J     K     L     M      Value
      ----------- --------  ----- ----- ----- ----- ----- ----------
    1 Stretch                  1     2                       1.09545
    2 Stretch                  1     3                       1.10635
    3 Stretch                  1     4                       1.46016
    4 Stretch                  1     5                       1.09545
    5 Stretch                  4     6                       1.01165
    6 Stretch                  4     7                       1.01165
    7 Bend                     1     4     6               115.58429
    8 Bend                     1     4     7               115.58429
    9 Bend                     2     1     3               107.54237
   10 Bend                     2     1     4               109.41652
   11 Bend                     2     1     5               106.99254
   12 Bend                     3     1     4               115.58229
   13 Bend                     3     1     5               107.54237
   14 Bend                     4     1     5               109.41652
   15 Bend                     6     4     7               112.52365
   16 Torsion                  2     1     4     6         171.24384
   17 Torsion                  2     1     4     7         -54.32046
   18 Torsion                  3     1     4     6         -67.21785
   19 Torsion                  3     1     4     7          67.21785
   20 Torsion                  5     1     4     6          54.32046
   21 Torsion                  5     1     4     7        -171.24384


            XYZ format geometry
            -------------------
     7
 geometry
 C                    -0.00416807     0.71244725     0.00000000
 H                    -0.52849637     1.09940279     0.88054184
 H                     1.01325020     1.14703617     0.00000000
 N                    -0.06665239    -0.74637191     0.00000000
 H                    -0.52849637     1.09940279    -0.88054184
 H                     0.26765884    -1.19796095    -0.84127200
 H                     0.26765884    -1.19796095     0.84127200

 ==============================================================================
                                internuclear distances
 ------------------------------------------------------------------------------
       center one      |      center two      | atomic units |  angstroms
 ------------------------------------------------------------------------------
    2 H                |   1 C                |     2.07010  |     1.09545
    3 H                |   1 C                |     2.09070  |     1.10635
    4 N                |   1 C                |     2.75930  |     1.46016
    5 H                |   1 C                |     2.07010  |     1.09545
    6 H                |   4 N                |     1.91174  |     1.01165
    7 H                |   4 N                |     1.91174  |     1.01165
 ------------------------------------------------------------------------------
                         number of included internuclear distances:          6
 ==============================================================================



 ==============================================================================
                                 internuclear angles
 ------------------------------------------------------------------------------
        center 1       |       center 2       |       center 3       |  degrees
 ------------------------------------------------------------------------------
    2 H                |   1 C                |   3 H                |   107.54
    2 H                |   1 C                |   4 N                |   109.42
    2 H                |   1 C                |   5 H                |   106.99
    3 H                |   1 C                |   4 N                |   115.58
    3 H                |   1 C                |   5 H                |   107.54
    4 N                |   1 C                |   5 H                |   109.42
    1 C                |   4 N                |   6 H                |   115.58
    1 C                |   4 N                |   7 H                |   115.58
    6 H                |   4 N                |   7 H                |   112.52
 ------------------------------------------------------------------------------
                            number of included internuclear angles:          9
 ==============================================================================



  library name resolved from: .nwchemrc
  library file name is: </opt/homebrew/Cellar/nwchem/7.2.3_1/share/nwchem/libraries/>
  


 Summary of "ao basis" -> "" (cartesian)
 ------------------------------------------------------------------------------
       Tag                 Description            Shells   Functions and Types
 ---------------- ------------------------------  ------  ---------------------
 *                           6-31G                    on all atoms 



                                 NWChem DFT Module
                                 -----------------


                                methylamine MO Cube


                      Basis "ao basis" -> "ao basis" (cartesian)
                      -----
  C (Carbon)
  ----------
            Exponent  Coefficients 
       -------------- ---------------------------------------------------------
  1 S  3.04752490E+03  0.001835
  1 S  4.57369510E+02  0.014037
  1 S  1.03948690E+02  0.068843
  1 S  2.92101550E+01  0.232184
  1 S  9.28666300E+00  0.467941
  1 S  3.16392700E+00  0.362312

  2 S  7.86827240E+00 -0.119332
  2 S  1.88128850E+00 -0.160854
  2 S  5.44249300E-01  1.143456

  3 P  7.86827240E+00  0.068999
  3 P  1.88128850E+00  0.316424
  3 P  5.44249300E-01  0.744308

  4 S  1.68714400E-01  1.000000

  5 P  1.68714400E-01  1.000000

  H (Hydrogen)
  ------------
            Exponent  Coefficients 
       -------------- ---------------------------------------------------------
  1 S  1.87311370E+01  0.033495
  1 S  2.82539370E+00  0.234727
  1 S  6.40121700E-01  0.813757

  2 S  1.61277800E-01  1.000000

  N (Nitrogen)
  ------------
            Exponent  Coefficients 
       -------------- ---------------------------------------------------------
  1 S  4.17351100E+03  0.001835
  1 S  6.27457900E+02  0.013995
  1 S  1.42902100E+02  0.068587
  1 S  4.02343300E+01  0.232241
  1 S  1.28202100E+01  0.469070
  1 S  4.39043700E+00  0.360455

  2 S  1.16263580E+01 -0.114961
  2 S  2.71628000E+00 -0.169118
  2 S  7.72218000E-01  1.145852

  3 P  1.16263580E+01  0.067580
  3 P  2.71628000E+00  0.323907
  3 P  7.72218000E-01  0.740895

  4 S  2.12031300E-01  1.000000

  5 P  2.12031300E-01  1.000000



 Summary of "ao basis" -> "ao basis" (cartesian)
 ------------------------------------------------------------------------------
       Tag                 Description            Shells   Functions and Types
 ---------------- ------------------------------  ------  ---------------------
 C                           6-31G                   5        9   3s2p
 H                           6-31G                   2        2   2s
 N                           6-31G                   5        9   3s2p




 Summary of "ao basis" -> "ao basis" (cartesian)
 ------------------------------------------------------------------------------
       Tag                 Description            Shells   Functions and Types
 ---------------- ------------------------------  ------  ---------------------
 C                           6-31G                   5        9   3s2p
 H                           6-31G                   2        2   2s
 N                           6-31G                   5        9   3s2p


      Symmetry analysis of basis
      --------------------------

        a'         20
        a"          8

  Caching 1-el integrals 

            General Information
            -------------------
          SCF calculation type: DFT
          Wavefunction type:  closed shell.
          No. of atoms     :     7
          No. of electrons :    18
           Alpha electrons :     9
            Beta electrons :     9
          Charge           :     0
          Spin multiplicity:     1
          Use of symmetry is: on ; symmetry adaption is: on 
          Maximum number of iterations: 500
          AO basis - number of functions:    28
                     number of shells:    20
          Convergence on energy requested:  1.00D-06
          Convergence on density requested:  1.00D-05
          Convergence on gradient requested:  5.00D-04

              XC Information
              --------------
                         B3LYP Method XC Potential
                     Hartree-Fock (Exact) Exchange  0.200          
                        Slater Exchange Functional  0.800 local    
                    Becke 1988 Exchange Functional  0.720 non-local
              Lee-Yang-Parr Correlation Functional  0.810          
                  VWN I RPA Correlation Functional  0.190 local    

             Grid Information
             ----------------
          Grid used for XC integration:  medium    
          Radial quadrature: Mura-Knowles        
          Angular quadrature: Lebedev. 
          Tag              B.-S. Rad. Rad. Pts. Rad. Cut. Ang. Pts.
          ---              ---------- --------- --------- ---------
          C                   0.70       49           7.0       434
          H                   0.35       45           8.0       434
          N                   0.65       49           7.0       434
          Grid pruning is: on 
          Number of quadrature shells:   233
          Spatial weights used:  Erf1

          Convergence Information
          -----------------------
          Convergence aids based upon iterative change in 
          total energy or number of iterations. 
          Levelshifting, if invoked, occurs when the 
          HOMO/LUMO gap drops below (HL_TOL):  1.00D-02
          DIIS, if invoked, will attempt to extrapolate 
          using up to (NFOCK): 10 stored Fock matrices.

                    Damping( 0%)  Levelshifting(0.5)       DIIS
                  --------------- ------------------- ---------------
          dE  on:    start            ASAP                start   
          dE off:    2 iters        500 iters           500 iters 


      Screening Tolerance Information
      -------------------------------
          Density screening/tol_rho:  1.00D-10
          AO Gaussian exp screening on grid/accAOfunc:  14
          CD Gaussian exp screening on grid/accCDfunc:  20
          XC Gaussian exp screening on grid/accXCfunc:  20
          Schwarz screening/accCoul:  1.00D-08


      Superposition of Atomic Density Guess
      -------------------------------------

 Sum of atomic energies:         -94.44515509

      Non-variational initial energy
      ------------------------------

 Total energy =     -95.586728
 1-e energy   =    -208.939199
 2-e energy   =      71.483378
 HOMO         =      -0.286002
 LUMO         =       0.128997


      Symmetry analysis of molecular orbitals - initial
      -------------------------------------------------

  Numbering of irreducible representations: 

     1 a'          2 a"      

  Orbital symmetries:

     1 a'          2 a'          3 a'          4 a'          5 a"      
     6 a'          7 a'          8 a"          9 a'         10 a'      
    11 a'         12 a"         13 a'         14 a"         15 a'      
    16 a'         17 a"         18 a'         19 a'      

  WARNING: movecs_in_org=atomic not equal to movecs_in=.//mo.movecs
   Time after variat. SCF:      0.2

     ---------------------------------------------
      Total Density - Mulliken Population Analysis
     ---------------------------------------------

    Atom       Charge   Shell Charges
 -----------   ------   -------------------------------------------------------
    1 C    6     6.36   2.00  0.71  1.94  0.67  1.05
    2 H    1     0.80   0.49  0.31
    3 H    1     0.82   0.49  0.33
    4 N    7     8.01   2.00  0.81  2.60  0.83  1.76
    5 H    1     0.80   0.49  0.31
    6 H    1     0.60   0.44  0.17
    7 H    1     0.60   0.44  0.17
   Time prior to 1st pass:      0.2

 #quartets = 1.315D+04 #integrals = 4.575D+04 #direct =  0.0% #cached =100.0%


 Integral file          = ./scr/mo.aoints.0
 Record size in doubles =  65536        No. of integs per rec  =  43688
 Max. records in memory =      3        Max. records in file   =  61912
 No. of bits per label  =      8        No. of bits per value  =     64


File balance: exchanges=     0  moved=     0  time=   0.0

  avail0,avail1,avail0-avail1                260676               260676                    0
  avail0,avail1,avail0-avail1                260676               260676                    0
  avail0,avail1,avail0-avail1                260676               260692                  -16
  avail0,avail1,avail0-avail1                260676               260692                  -16

 Grid_pts file          = ./scr/mo.gridpts.0
 Record size in doubles =  12289        No. of grid_pts per rec  =   3070
 Max. records in memory =      6        Max. recs in file   =      5157


           Memory utilization after 1st SCF pass: 
           Heap Space remaining (MW):      327.41           327407652
          Stack Space remaining (MW):      327.68           327679652

   convergence    iter        energy       DeltaE   RMS-Dens  Diis-err    time
 ---------------- ----- ----------------- --------- --------- ---------  ------
 d= 0,ls=0.0,diis     1    -95.7977666237 -1.38D+02  2.00D-02  2.28D-01     0.2
 d= 0,ls=0.0,diis     2    -95.8122778973 -1.45D-02  9.31D-03  1.19D-01     0.2
 d= 0,ls=0.0,diis     3    -95.8229391276 -1.07D-02  2.89D-03  2.34D-02     0.3
 d= 0,ls=0.0,diis     4    -95.8254348778 -2.50D-03  2.96D-04  7.80D-05     0.3
 d= 0,ls=0.0,diis     5    -95.8254428624 -7.98D-06  1.07D-04  2.08D-05     0.3
  Resetting Diis
 d= 0,ls=0.0,diis     6    -95.8254455704 -2.71D-06  1.03D-05  3.52D-08     0.3
 d= 0,ls=0.0,diis     7    -95.8254455772 -6.84D-09  1.76D-06  5.46D-10     0.3


         Total DFT energy =      -95.825445577246
      One electron energy =     -211.292268999985
           Coulomb energy =       87.814705165070
    Exchange-Corr. energy =      -14.216976088699
 Nuclear repulsion energy =       41.869094346368

 Numeric. integr. density =       17.999998732163

     Total iterative time =      0.2s



                  Occupations of the irreducible representations
                  ----------------------------------------------

                     irrep           alpha         beta
                     --------     --------     --------
                     a'                7.0          7.0
                     a"                2.0          2.0


                       DFT Final Molecular Orbital Analysis
                       ------------------------------------

 Vector    1  Occ=2.000000D+00  E=-1.429537D+01  Symmetry=a'
              MO Center= -6.7D-02, -7.5D-01,  2.6D-18, r^2= 2.0D-02
   Bfn.  Coefficient  Atom+Function         Bfn.  Coefficient  Atom+Function  
  ----- ------------  ---------------      ----- ------------  ---------------
    14      0.995231  4 N  s                 15      0.031581  4 N  s          

 Vector    2  Occ=2.000000D+00  E=-1.019392D+01  Symmetry=a'
              MO Center= -4.2D-03,  7.1D-01,  2.6D-18, r^2= 2.8D-02
   Bfn.  Coefficient  Atom+Function         Bfn.  Coefficient  Atom+Function  
  ----- ------------  ---------------      ----- ------------  ---------------
     1      0.995274  1 C  s                  2      0.036197  1 C  s          
     6     -0.029949  1 C  s          

 Vector    3  Occ=2.000000D+00  E=-8.646727D-01  Symmetry=a'
              MO Center=  6.2D-02, -4.8D-01, -2.6D-16, r^2= 9.3D-01
   Bfn.  Coefficient  Atom+Function         Bfn.  Coefficient  Atom+Function  
  ----- ------------  ---------------      ----- ------------  ---------------
    19      0.393189  4 N  s                 15      0.386736  4 N  s          
     2      0.194012  1 C  s                 14     -0.185735  4 N  s          
    25      0.122802  6 H  s                 27      0.122802  7 H  s          
     6      0.110770  1 C  s                  1     -0.099379  1 C  s          
     4     -0.096698  1 C  py                16      0.077332  4 N  px         

 Vector    4  Occ=2.000000D+00  E=-6.589458D-01  Symmetry=a'
              MO Center=  7.3D-03,  4.0D-01,  8.1D-16, r^2= 1.7D+00
   Bfn.  Coefficient  Atom+Function         Bfn.  Coefficient  Atom+Function  
  ----- ------------  ---------------      ----- ------------  ---------------
     2      0.337125  1 C  s                  6      0.338747  1 C  s          
    19     -0.212917  4 N  s                 17      0.173007  4 N  py         
     1     -0.170020  1 C  s                 15     -0.164252  4 N  s          
    10      0.136023  2 H  s                 23      0.136023  5 H  s          
    12      0.126369  3 H  s                 25     -0.109731  6 H  s          

 Vector    5  Occ=2.000000D+00  E=-4.911840D-01  Symmetry=a"
              MO Center=  1.3D-02, -5.4D-01, -3.4D-15, r^2= 1.5D+00
   Bfn.  Coefficient  Atom+Function         Bfn.  Coefficient  Atom+Function  
  ----- ------------  ---------------      ----- ------------  ---------------
    18      0.426821  4 N  pz                 5      0.217665  1 C  pz         
    25     -0.215948  6 H  s                 27      0.215948  7 H  s          
    22      0.193776  4 N  pz                26     -0.126950  6 H  s          
    28      0.126950  7 H  s                  9      0.105891  1 C  pz         
    10      0.092053  2 H  s                 23     -0.092053  5 H  s          

 Vector    6  Occ=2.000000D+00  E=-4.322923D-01  Symmetry=a'
              MO Center=  1.7D-01,  1.5D-01,  4.5D-15, r^2= 1.6D+00
   Bfn.  Coefficient  Atom+Function         Bfn.  Coefficient  Atom+Function  
  ----- ------------  ---------------      ----- ------------  ---------------
    17     -0.366105  4 N  py                 4      0.345687  1 C  py         
     3      0.207110  1 C  px                12      0.196573  3 H  s          
    21     -0.181753  4 N  py                13      0.164196  3 H  s          
    16      0.139054  4 N  px                 8      0.123356  1 C  py         
    25      0.107457  6 H  s                 27      0.107457  7 H  s          

 Vector    7  Occ=2.000000D+00  E=-4.028100D-01  Symmetry=a'
              MO Center=  1.1D-02,  5.5D-01, -5.9D-15, r^2= 1.6D+00
   Bfn.  Coefficient  Atom+Function         Bfn.  Coefficient  Atom+Function  
  ----- ------------  ---------------      ----- ------------  ---------------
     3      0.387174  1 C  px                17      0.227217  4 N  py         
     4     -0.195463  1 C  py                12      0.184009  3 H  s          
     7      0.178537  1 C  px                10     -0.157511  2 H  s          
    23     -0.157511  5 H  s                 13      0.153053  3 H  s          
    21      0.129518  4 N  py                11     -0.126454  2 H  s          

 Vector    8  Occ=2.000000D+00  E=-3.679634D-01  Symmetry=a"
              MO Center= -1.8D-01,  4.9D-01,  3.6D-15, r^2= 1.9D+00
   Bfn.  Coefficient  Atom+Function         Bfn.  Coefficient  Atom+Function  
  ----- ------------  ---------------      ----- ------------  ---------------
     5      0.405961  1 C  pz                10      0.229338  2 H  s          
    23     -0.229338  5 H  s                 18     -0.225981  4 N  pz         
    11      0.204019  2 H  s                 24     -0.204019  5 H  s          
     9      0.183770  1 C  pz                25      0.147326  6 H  s          
    27     -0.147326  7 H  s                 22     -0.116398  4 N  pz         

 Vector    9  Occ=2.000000D+00  E=-2.059277D-01  Symmetry=a'
              MO Center= -1.4D-01, -5.5D-01, -2.9D-16, r^2= 1.4D+00
   Bfn.  Coefficient  Atom+Function         Bfn.  Coefficient  Atom+Function  
  ----- ------------  ---------------      ----- ------------  ---------------
    16      0.552542  4 N  px                20      0.493259  4 N  px         
    13     -0.222947  3 H  s                 19     -0.156860  4 N  s          
    12     -0.151180  3 H  s                  3     -0.122227  1 C  px         
    21      0.113792  4 N  py                15     -0.111068  4 N  s          
    17      0.098260  4 N  py                11      0.094241  2 H  s          

 Vector   10  Occ=0.000000D+00  E= 8.788691D-02  Symmetry=a'
              MO Center=  2.7D-01, -7.4D-01,  6.7D-16, r^2= 3.7D+00
   Bfn.  Coefficient  Atom+Function         Bfn.  Coefficient  Atom+Function  
  ----- ------------  ---------------      ----- ------------  ---------------
    19      1.537118  4 N  s                 26     -0.980348  6 H  s          
    28     -0.980348  7 H  s                  6      0.724010  1 C  s          
     8      0.538426  1 C  py                11     -0.472316  2 H  s          
    24     -0.472316  5 H  s                 13     -0.400365  3 H  s          
    20      0.311912  4 N  px                21     -0.228378  4 N  py         

 Vector   11  Occ=0.000000D+00  E= 1.364337D-01  Symmetry=a'
              MO Center=  7.9D-02,  8.6D-01,  1.3D-14, r^2= 4.2D+00
   Bfn.  Coefficient  Atom+Function         Bfn.  Coefficient  Atom+Function  
  ----- ------------  ---------------      ----- ------------  ---------------
     6      2.474799  1 C  s                 13     -1.106167  3 H  s          
    11     -1.038031  2 H  s                 24     -1.038031  5 H  s          
    19     -0.993258  4 N  s                 26      0.428602  6 H  s          
    28      0.428602  7 H  s                 21     -0.221651  4 N  py         
     2      0.181862  1 C  s                 20     -0.158885  4 N  px         

 Vector   12  Occ=0.000000D+00  E= 1.502488D-01  Symmetry=a"
              MO Center= -7.8D-02, -2.3D-01,  6.3D-15, r^2= 4.3D+00
   Bfn.  Coefficient  Atom+Function         Bfn.  Coefficient  Atom+Function  
  ----- ------------  ---------------      ----- ------------  ---------------
    26     -1.047573  6 H  s                 28      1.047573  7 H  s          
    11      0.965767  2 H  s                 24     -0.965767  5 H  s          
     9     -0.738732  1 C  pz                22     -0.671856  4 N  pz         
     5     -0.292093  1 C  pz                18     -0.289508  4 N  pz         
    25     -0.078720  6 H  s                 27      0.078720  7 H  s          

 Vector   13  Occ=0.000000D+00  E= 1.797167D-01  Symmetry=a'
              MO Center=  4.3D-01,  1.1D+00, -5.2D-15, r^2= 2.9D+00
   Bfn.  Coefficient  Atom+Function         Bfn.  Coefficient  Atom+Function  
  ----- ------------  ---------------      ----- ------------  ---------------
    13      1.688468  3 H  s                  7     -1.347034  1 C  px         
    11     -0.941525  2 H  s                 24     -0.941525  5 H  s          
     3     -0.446861  1 C  px                20      0.263446  4 N  px         
     8      0.113143  1 C  py                26      0.110222  6 H  s          
    28      0.110222  7 H  s                 21      0.097744  4 N  py         

 Vector   14  Occ=0.000000D+00  E= 1.919751D-01  Symmetry=a"
              MO Center= -6.7D-02,  5.6D-02, -1.6D-14, r^2= 4.3D+00
   Bfn.  Coefficient  Atom+Function         Bfn.  Coefficient  Atom+Function  
  ----- ------------  ---------------      ----- ------------  ---------------
     9      1.214479  1 C  pz                11     -1.213643  2 H  s          
    24      1.213643  5 H  s                 26     -1.009673  6 H  s          
    28      1.009673  7 H  s                 22     -0.917710  4 N  pz         
    18     -0.293684  4 N  pz                 5      0.288958  1 C  pz         
    10     -0.073914  2 H  s                 23      0.073914  5 H  s          

 Vector   15  Occ=0.000000D+00  E= 2.420152D-01  Symmetry=a'
              MO Center=  2.2D-02,  2.8D-01,  2.7D-15, r^2= 2.7D+00
   Bfn.  Coefficient  Atom+Function         Bfn.  Coefficient  Atom+Function  
  ----- ------------  ---------------      ----- ------------  ---------------
     8      1.709730  1 C  py                21      1.393186  4 N  py         
     6     -1.076647  1 C  s                 19      0.862349  4 N  s          
    26      0.629673  6 H  s                 28      0.629673  7 H  s          
    13     -0.493776  3 H  s                 17      0.420212  4 N  py         
     4      0.311391  1 C  py                 7      0.279192  1 C  px         

 Vector   16  Occ=0.000000D+00  E= 5.710316D-01  Symmetry=a'
              MO Center=  2.7D-02,  7.2D-01,  4.1D-17, r^2= 1.9D+00
   Bfn.  Coefficient  Atom+Function         Bfn.  Coefficient  Atom+Function  
  ----- ------------  ---------------      ----- ------------  ---------------
     8      1.471810  1 C  py                 4     -1.059850  1 C  py         
    19      0.692990  4 N  s                  2      0.325706  1 C  s          
     7     -0.278558  1 C  px                11     -0.196059  2 H  s          
    24     -0.196059  5 H  s                 15     -0.176427  4 N  s          
     3      0.127917  1 C  px                10     -0.128048  2 H  s          

 Vector   17  Occ=0.000000D+00  E= 5.735159D-01  Symmetry=a"
              MO Center=  2.2D-01,  5.3D-01,  3.3D-16, r^2= 2.2D+00
   Bfn.  Coefficient  Atom+Function         Bfn.  Coefficient  Atom+Function  
  ----- ------------  ---------------      ----- ------------  ---------------
     9      1.638869  1 C  pz                 5     -0.773055  1 C  pz         
    10     -0.413880  2 H  s                 23      0.413880  5 H  s          
    11     -0.332958  2 H  s                 24      0.332958  5 H  s          
    25      0.236539  6 H  s                 27     -0.236539  7 H  s          
    22     -0.074137  4 N  pz                18      0.032145  4 N  pz         

 Vector   18  Occ=0.000000D+00  E= 6.071374D-01  Symmetry=a'
              MO Center= -2.4D-01,  5.2D-01, -3.4D-16, r^2= 2.1D+00
   Bfn.  Coefficient  Atom+Function         Bfn.  Coefficient  Atom+Function  
  ----- ------------  ---------------      ----- ------------  ---------------
     7      1.735318  1 C  px                 3     -0.739118  1 C  px         
    13     -0.553125  3 H  s                 12     -0.494589  3 H  s          
     8      0.334680  1 C  py                16     -0.314404  4 N  px         
    19      0.290813  4 N  s                 11      0.230846  2 H  s          
    24      0.230846  5 H  s                 10      0.194873  2 H  s          

 Vector   19  Occ=0.000000D+00  E= 7.610169D-01  Symmetry=a'
              MO Center= -2.6D-01, -9.3D-01,  2.3D-16, r^2= 1.7D+00
   Bfn.  Coefficient  Atom+Function         Bfn.  Coefficient  Atom+Function  
  ----- ------------  ---------------      ----- ------------  ---------------
    20     -0.946865  4 N  px                 7      0.904705  1 C  px         
    21     -0.896070  4 N  py                16      0.802533  4 N  px         
     6      0.742539  1 C  s                 13     -0.522382  3 H  s          
    17      0.419997  4 N  py                 3     -0.316741  1 C  px         
    25     -0.307550  6 H  s                 27     -0.307550  7 H  s          

 Vector   20  Occ=0.000000D+00  E= 8.011599D-01  Symmetry=a'
              MO Center=  3.4D-02, -6.6D-01,  4.0D-15, r^2= 2.2D+00
   Bfn.  Coefficient  Atom+Function         Bfn.  Coefficient  Atom+Function  
  ----- ------------  ---------------      ----- ------------  ---------------
    21      1.487953  4 N  py                 7      1.006169  1 C  px         
     6     -0.978852  1 C  s                 20     -0.934192  4 N  px         
    13     -0.676787  3 H  s                 17     -0.589242  4 N  py         
     8      0.567491  1 C  py                25      0.466473  6 H  s          
    27      0.466473  7 H  s                 16      0.444468  4 N  px         

 Vector   21  Occ=0.000000D+00  E= 8.249424D-01  Symmetry=a"
              MO Center= -3.4D-01,  1.8D-01, -4.0D-15, r^2= 2.7D+00
   Bfn.  Coefficient  Atom+Function         Bfn.  Coefficient  Atom+Function  
  ----- ------------  ---------------      ----- ------------  ---------------
     9      1.624586  1 C  pz                22     -1.519780  4 N  pz         
    11     -1.168358  2 H  s                 24      1.168358  5 H  s          
     5     -0.673586  1 C  pz                25     -0.497920  6 H  s          
    27      0.497920  7 H  s                 10      0.447891  2 H  s          
    23     -0.447891  5 H  s                 18      0.441822  4 N  pz         

 Vector   22  Occ=0.000000D+00  E= 8.838005D-01  Symmetry=a'
              MO Center=  4.2D-01,  3.0D-01, -3.4D-16, r^2= 2.6D+00
   Bfn.  Coefficient  Atom+Function         Bfn.  Coefficient  Atom+Function  
  ----- ------------  ---------------      ----- ------------  ---------------
    13      1.038998  3 H  s                 12     -0.851193  3 H  s          
     7     -0.684386  1 C  px                21      0.553763  4 N  py         
     6     -0.513638  1 C  s                 25     -0.506090  6 H  s          
    27     -0.506090  7 H  s                 17     -0.460626  4 N  py         
    26      0.415498  6 H  s                 28      0.415498  7 H  s          

 Vector   23  Occ=0.000000D+00  E= 9.455437D-01  Symmetry=a"
              MO Center=  1.3D-01, -9.7D-01,  1.4D-16, r^2= 2.0D+00
   Bfn.  Coefficient  Atom+Function         Bfn.  Coefficient  Atom+Function  
  ----- ------------  ---------------      ----- ------------  ---------------
    22      1.338362  4 N  pz                26      1.279097  6 H  s          
    28     -1.279097  7 H  s                 18     -0.977940  4 N  pz         
    25     -0.546075  6 H  s                 27      0.546075  7 H  s          
    11     -0.328519  2 H  s                 24      0.328519  5 H  s          
     9      0.319652  1 C  pz                 5     -0.272956  1 C  pz         

 Vector   24  Occ=0.000000D+00  E= 9.538872D-01  Symmetry=a'
              MO Center=  1.7D-01,  5.0D-01,  2.3D-16, r^2= 3.0D+00
   Bfn.  Coefficient  Atom+Function         Bfn.  Coefficient  Atom+Function  
  ----- ------------  ---------------      ----- ------------  ---------------
    13      1.007289  3 H  s                 12     -0.751102  3 H  s          
    11     -0.674139  2 H  s                 24     -0.674139  5 H  s          
    10      0.592688  2 H  s                 23      0.592688  5 H  s          
     3      0.550675  1 C  px                20     -0.481746  4 N  px         
    25      0.457733  6 H  s                 27      0.457733  7 H  s          

 Vector   25  Occ=0.000000D+00  E= 9.818904D-01  Symmetry=a'
              MO Center= -2.7D-02,  1.3D-01, -1.2D-15, r^2= 3.3D+00
   Bfn.  Coefficient  Atom+Function         Bfn.  Coefficient  Atom+Function  
  ----- ------------  ---------------      ----- ------------  ---------------
     6      1.668124  1 C  s                  2     -1.071784  1 C  s          
    11     -0.980914  2 H  s                 24     -0.980914  5 H  s          
    21      0.961205  4 N  py                 8      0.810804  1 C  py         
    26      0.776561  6 H  s                 28      0.776561  7 H  s          
    19     -0.764684  4 N  s                 13     -0.640262  3 H  s          

 Vector   26  Occ=0.000000D+00  E= 1.011783D+00  Symmetry=a"
              MO Center= -2.8D-01,  2.9D-01,  3.9D-16, r^2= 3.0D+00
   Bfn.  Coefficient  Atom+Function         Bfn.  Coefficient  Atom+Function  
  ----- ------------  ---------------      ----- ------------  ---------------
    22      1.144957  4 N  pz                11     -0.752173  2 H  s          
    24      0.752173  5 H  s                 10      0.736017  2 H  s          
    23     -0.736017  5 H  s                 25      0.641181  6 H  s          
    27     -0.641181  7 H  s                  5     -0.453085  1 C  pz         
    18     -0.141866  4 N  pz                 9     -0.103462  1 C  pz         

 Vector   27  Occ=0.000000D+00  E= 1.095691D+00  Symmetry=a'
              MO Center=  8.8D-02,  2.3D-01, -6.9D-16, r^2= 2.9D+00
   Bfn.  Coefficient  Atom+Function         Bfn.  Coefficient  Atom+Function  
  ----- ------------  ---------------      ----- ------------  ---------------
     6      4.229261  1 C  s                  2     -1.862938  1 C  s          
    19      1.046847  4 N  s                 15     -0.989969  4 N  s          
    13     -0.940917  3 H  s                 11     -0.800268  2 H  s          
    24     -0.800268  5 H  s                 21     -0.708646  4 N  py         
    26     -0.686639  6 H  s                 28     -0.686639  7 H  s          

 Vector   28  Occ=0.000000D+00  E= 1.478109D+00  Symmetry=a'
              MO Center=  5.2D-02, -1.1D-01,  5.3D-16, r^2= 2.2D+00
   Bfn.  Coefficient  Atom+Function         Bfn.  Coefficient  Atom+Function  
  ----- ------------  ---------------      ----- ------------  ---------------
     6      4.484519  1 C  s                 19     -4.305288  4 N  s          
    15      1.698722  4 N  s                 21     -1.362113  4 N  py         
     2     -1.101210  1 C  s                  8     -1.059284  1 C  py         
    12     -0.448089  3 H  s                 11     -0.445303  2 H  s          
    24     -0.445303  5 H  s                 10     -0.414041  2 H  s          


     ---------------------------------------------
      Total Density - Mulliken Population Analysis
     ---------------------------------------------

    Atom       Charge   Shell Charges
 -----------   ------   -------------------------------------------------------
    1 C    6     6.25   2.00  0.68  2.11  0.61  0.86
    2 H    1     0.86   0.54  0.32
    3 H    1     0.89   0.54  0.35
    4 N    7     7.70   2.00  0.77  2.54  0.84  1.56
    5 H    1     0.86   0.54  0.32
    6 H    1     0.72   0.53  0.19
    7 H    1     0.72   0.53  0.19

     -------------------------------------------
      Total Density - Lowdin Population Analysis
     -------------------------------------------

    Atom       Charge   Shell Charges
 -----------   ------   -------------------------------------------------------
    1 C    6     6.22   1.99  0.56  1.90  0.44  1.33
    2 H    1     0.89   0.52  0.37
    3 H    1     0.93   0.53  0.40
    4 N    7     7.48   1.99  0.69  2.40  0.56  1.83
    5 H    1     0.89   0.52  0.37
    6 H    1     0.80   0.50  0.29
    7 H    1     0.80   0.50  0.29

 center of mass
 --------------
 x =  -0.02970344 y =  -0.05751435 z =   0.00000000

 moments of inertia (a.u.)
 ------------------
          83.945990810929           0.000000000000           0.000000000000
           0.000000000000          17.091988660697           0.000000000000
           0.000000000000           0.000000000000          79.687332890711

     Multipole analysis of the density
     ---------------------------------

     L   x y z        total         alpha         beta         nuclear
     -   - - -        -----         -----         ----         -------
     0   0 0 0     -0.000000     -9.000000     -9.000000     18.000000

     1   1 0 0      0.493939      0.246970      0.246970      0.000000
     1   0 1 0      0.022603      0.011302      0.011302     -0.000000
     1   0 0 1     -0.000000     -0.000000     -0.000000      0.000000

     2   2 0 0    -11.493203     -8.888741     -8.888741      6.284278
     2   1 1 0     -1.478245     -0.184356     -0.184356     -1.109532
     2   1 0 1     -0.000000     -0.000000     -0.000000      0.000000
     2   0 2 0     -9.748506    -29.065124    -29.065124     48.381742
     2   0 1 1     -0.000000     -0.000000     -0.000000      0.000000
     2   0 0 2     -9.114484     -9.853461     -9.853461     10.592437


 Parallel integral file used       8 records with       0 large values


 Task  times  cpu:        0.3s     wall:        0.3s


                                NWChem Input Module
                                -------------------



  Limits (a.u.) specified for the density plot:
  ---------------------------------------------

        From        To      # of spacings
X    -7.55891     7.55891        20
Y    -7.55891     7.55891        20
Z    -7.55891     7.55891        20

  Total number of grid points =                  9261

  1-st set of MOs      : mo.movecs
  Output is written to : mo09.cube
  Type of picture      : ORBITAL VIEW
  Format used          : Gaussian9x Cube
  Spin                 : ALPHA   
  The orbital   9 is plotted
  Grid minima (bohr)  -7.558906 -7.558906 -7.558906
  Grid maxima (bohr)   7.558906  7.558906  7.558906
  max element   0.51947090543626617     

 Task  times  cpu:        0.0s     wall:        0.0s


                                NWChem Input Module
                                -------------------


 Summary of allocated global arrays
-----------------------------------
  No active global arrays


MA_summarize_allocated_blocks: starting scan ...
MA_summarize_allocated_blocks: scan completed: 0 heap blocks, 0 stack blocks
MA usage statistics:

	allocation statistics:
					      heap	     stack
					      ----	     -----
	current number of blocks	         0	         0
	maximum number of blocks	        22	        62
	current total bytes		         0	         0
	maximum total bytes		   2178616	  22511592
	maximum total K-bytes		      2179	     22512
	maximum total M-bytes		         3	        23


                                     CITATION
                                     --------
                Please cite the following reference when publishing
                           results obtained with NWChem:

          E. Apra, E. J. Bylaska, W. A. de Jong, N. Govind, K. Kowalski,
       T. P. Straatsma, M. Valiev, H. J. J. van Dam, Y. Alexeev, J. Anchell,
       V. Anisimov, F. W. Aquino, R. Atta-Fynn, J. Autschbach, N. P. Bauman,
     J. C. Becca, D. E. Bernholdt, K. Bhaskaran-Nair, S. Bogatko, P. Borowski,
         J. Boschen, J. Brabec, A. Bruner, E. Cauet, Y. Chen, G. N. Chuev,
      C. J. Cramer, J. Daily, M. J. O. Deegan, T. H. Dunning Jr., M. Dupuis,
   K. G. Dyall, G. I. Fann, S. A. Fischer, A. Fonari, H. Fruchtl, L. Gagliardi,
      J. Garza, N. Gawande, S. Ghosh, K. Glaesemann, A. W. Gotz, J. Hammond,
       V. Helms, E. D. Hermes, K. Hirao, S. Hirata, M. Jacquelin, L. Jensen,
   B. G. Johnson, H. Jonsson, R. A. Kendall, M. Klemm, R. Kobayashi, V. Konkov,
      S. Krishnamoorthy, M. Krishnan, Z. Lin, R. D. Lins, R. J. Littlefield,
      A. J. Logsdail, K. Lopata, W. Ma, A. V. Marenich, J. Martin del Campo,
   D. Mejia-Rodriguez, J. E. Moore, J. M. Mullin, T. Nakajima, D. R. Nascimento,
    J. A. Nichols, P. J. Nichols, J. Nieplocha, A. Otero-de-la-Roza, B. Palmer,
    A. Panyala, T. Pirojsirikul, B. Peng, R. Peverati, J. Pittner, L. Pollack,
   R. M. Richard, P. Sadayappan, G. C. Schatz, W. A. Shelton, D. W. Silverstein,
   D. M. A. Smith, T. A. Soares, D. Song, M. Swart, H. L. Taylor, G. S. Thomas,
            V. Tipparaju, D. G. Truhlar, K. Tsemekhman, T. Van Voorhis,
      A. Vazquez-Mayagoitia, P. Verma, O. Villa, A. Vishnu, K. D. Vogiatzis,
        D. Wang, J. H. Weare, M. J. Williamson, T. L. Windus, K. Wolinski,
        A. T. Wong, Q. Wu, C. Yang, Q. Yu, M. Zacharias, Z. Zhang, Y. Zhao,
                                and R. J. Harrison
                        "NWChem: Past, present, and future
                         J. Chem. Phys. 152, 184102 (2020)
                               doi:10.1063/5.0004997

                                      AUTHORS
                                      -------
  E. Apra, E. J. Bylaska, N. Govind, K. Kowalski, M. Valiev, D. Mejia-Rodriguez,
       A. Kunitsa, N. P. Bauman, A. Panyala, W. A. de Jong, T. P. Straatsma,
   H. J. J. van Dam, D. Wang, T. L. Windus, J. Hammond, J. Autschbach, A. Woods,
    K. Bhaskaran-Nair, J. Brabec, K. Lopata, S. A. Fischer, S. Krishnamoorthy,
     M. Jacquelin, W. Ma, M. Klemm, O. Villa, Y. Chen, V. Anisimov, F. Aquino,
     S. Hirata, M. T. Hackler, E. Hermes, L. Jensen, J. E. Moore, J. C. Becca,
      V. Konjkov, T. Risthaus, M. Malagoli, A. Marenich, A. Otero-de-la-Roza,
        J. Mullin, P. Nichols, R. Peverati, J. Pittner, Y. Zhao, P.-D. Fan,
        A. Fonari, M. J. Williamson, R. J. Harrison, J. R. Rehr, M. Dupuis,
     D. Silverstein, D. M. A. Smith, J. Nieplocha, V. Tipparaju, M. Krishnan,
     B. E. Van Kuiken, A. Vazquez-Mayagoitia, M. Swart, Q. Wu, T. Van Voorhis,
     A. A. Auer, M. Nooijen, L. D. Crosby, E. Brown, G. Cisneros, G. I. Fann,
   H. Fruchtl, J. Garza, K. Hirao, R. A. Kendall, J. A. Nichols, K. Tsemekhman,
    K. Wolinski, J. Anchell, D. E. Bernholdt, P. Borowski, T. Clark, D. Clerc,
   H. Dachsel, M. J. O. Deegan, K. Dyall, D. Elwood, E. Glendening, M. Gutowski,
   A. C. Hess, J. Jaffe, B. G. Johnson, J. Ju, R. Kobayashi, R. Kutteh, Z. Lin,
   R. Littlefield, X. Long, B. Meng, T. Nakajima, S. Niu, L. Pollack, M. Rosing,
   K. Glaesemann, G. Sandrone, M. Stave, H. Taylor, G. Thomas, J. H. van Lenthe,
                               A. T. Wong, Z. Zhang.

 Total times  cpu:        0.4s     wall:        0.4s
