[Molden Format]
[Atoms] (AU)
C    1    6          -0.1085201036        -0.2732223924         0.0990992919
C    2    6           0.1018154539         0.1271504824         2.6912612039
H    3    1           1.6253595540        -0.4158192879        -0.9873848568
H    4    1           1.9284700355         0.2907742002         3.5937584536
H    5    1          -1.5607008449         0.2857908466         3.8755834277
C    6    6          -2.3867015119        -0.5034345855        -1.1973147089
H    7    1          -4.1794678104        -0.3778018705        -0.2165190716
H    8    1          -2.4302372987        -0.8137157233        -3.2171595284
[GTO]
  1 0
 s    8  1.00
     6665.0000000000         0.0006920000
     1000.0000000000         0.0053290000
      228.0000000000         0.0270770000
       64.7100000000         0.1017180000
       21.0600000000         0.2747400000
        7.4950000000         0.4485640000
        2.7970000000         0.2850740000
        0.5215000000         0.0152040000
 s    8  1.00
     6665.0000000000        -0.0001460000
     1000.0000000000        -0.0011540000
      228.0000000000        -0.0057250000
       64.7100000000        -0.0233120000
       21.0600000000        -0.0639550000
        7.4950000000        -0.1499810000
        2.7970000000        -0.1272620000
        0.5215000000         0.5445290000
 s    1  1.00
        0.1596000000         1.0000000000
 p    3  1.00
        9.4390000000         0.0381090000
        2.0020000000         0.2094800000
        0.5456000000         0.5085570000
 p    1  1.00
        0.1517000000         1.0000000000
 d    1  1.00
        0.5500000000         1.0000000000

  2 0
 s    8  1.00
     6665.0000000000         0.0006920000
     1000.0000000000         0.0053290000
      228.0000000000         0.0270770000
       64.7100000000         0.1017180000
       21.0600000000         0.2747400000
        7.4950000000         0.4485640000
        2.7970000000         0.2850740000
        0.5215000000         0.0152040000
 s    8  1.00
     6665.0000000000        -0.0001460000
     1000.0000000000        -0.0011540000
      228.0000000000        -0.0057250000
       64.7100000000        -0.0233120000
       21.0600000000        -0.0639550000
        7.4950000000        -0.1499810000
        2.7970000000        -0.1272620000
        0.5215000000         0.5445290000
 s    1  1.00
        0.1596000000         1.0000000000
 p    3  1.00
        9.4390000000         0.0381090000
        2.0020000000         0.2094800000
        0.5456000000         0.5085570000
 p    1  1.00
        0.1517000000         1.0000000000
 d    1  1.00
        0.5500000000         1.0000000000

  3 0
 s    3  1.00
       13.0100000000         0.0196850000
        1.9620000000         0.1379770000
        0.4446000000         0.4781480000
 s    1  1.00
        0.1220000000         1.0000000000
 p    1  1.00
        0.7270000000         1.0000000000

  4 0
 s    3  1.00
       13.0100000000         0.0196850000
        1.9620000000         0.1379770000
        0.4446000000         0.4781480000
 s    1  1.00
        0.1220000000         1.0000000000
 p    1  1.00
        0.7270000000         1.0000000000

  5 0
 s    3  1.00
       13.0100000000         0.0196850000
        1.9620000000         0.1379770000
        0.4446000000         0.4781480000
 s    1  1.00
        0.1220000000         1.0000000000
 p    1  1.00
        0.7270000000         1.0000000000

  6 0
 s    8  1.00
     6665.0000000000         0.0006920000
     1000.0000000000         0.0053290000
      228.0000000000         0.0270770000
       64.7100000000         0.1017180000
       21.0600000000         0.2747400000
        7.4950000000         0.4485640000
        2.7970000000         0.2850740000
        0.5215000000         0.0152040000
 s    8  1.00
     6665.0000000000        -0.0001460000
     1000.0000000000        -0.0011540000
      228.0000000000        -0.0057250000
       64.7100000000        -0.0233120000
       21.0600000000        -0.0639550000
        7.4950000000        -0.1499810000
        2.7970000000        -0.1272620000
        0.5215000000         0.5445290000
 s    1  1.00
        0.1596000000         1.0000000000
 p    3  1.00
        9.4390000000         0.0381090000
        2.0020000000         0.2094800000
        0.5456000000         0.5085570000
 p    1  1.00
        0.1517000000         1.0000000000
 d    1  1.00
        0.5500000000         1.0000000000

  7 0
 s    3  1.00
       13.0100000000         0.0196850000
        1.9620000000         0.1379770000
        0.4446000000         0.4781480000
 s    1  1.00
        0.1220000000         1.0000000000
 p    1  1.00
        0.7270000000         1.0000000000

  8 0
 s    3  1.00
       13.0100000000         0.0196850000
        1.9620000000         0.1379770000
        0.4446000000         0.4781480000
 s    1  1.00
        0.1220000000         1.0000000000
 p    1  1.00
        0.7270000000         1.0000000000

[5D7F]
[9G]

[MO]
 Sym= A
 Ene=        -1.1238725393e+01
 Spin= Alpha
 Occup=         1.0000000000e+00
  1         7.4615632057e-02
  2        -8.4146298224e-05
  3         7.0363663631e-04
  4         5.9019862439e-05
  5        -5.0276822124e-06
  6        -3.8071856053e-05
  7        -4.0576340979e-05
  8         5.2742485382e-06
  9         3.8087085478e-05
 10        -2.5860511875e-04
 11        -9.7177823182e-05
 12        -1.2995596755e-04
 13        -3.7062369927e-04
 14        -2.5413078385e-05
 15         7.1029235017e-01
 16         3.7962260715e-03
 17        -4.6647394580e-03
 18         4.9408928072e-05
 19         1.5357945687e-05
 20         9.5720692808e-05
 21        -2.5278396054e-04
 22        -1.5031042876e-05
 23        -7.5260967174e-05
 24         9.6785927825e-05
 25         4.2610832082e-05
 26         5.9526743289e-05
 27         2.0744876880e-04
 28         1.2391059751e-05
 29         5.5967770374e-05
 30         2.6233257018e-04
 31        -1.5347499148e-04
 32         1.2594233564e-05
 33         9.5993629811e-05
 34        -3.2097219493e-04
 35         1.1014787814e-03
 36         4.3536474630e-04
 37         3.2927121280e-05
 38         1.7550057986e-04
 39        -3.6921178403e-04
 40         8.6102405468e-04
 41        -3.6614828122e-04
 42         3.3470161753e-05
 43         2.5125366102e-04
 44         7.0317276307e-01
 45         3.7555344593e-03
 46        -4.5979786623e-03
 47        -6.5362336679e-05
 48        -1.3900541956e-05
 49        -8.4750950863e-05
 50        -3.0571546851e-05
 51         4.0049413502e-05
 52         2.6393977840e-04
 53         1.4663490883e-04
 54         1.5137471194e-05
 55         6.7959274417e-05
 56         1.7736942246e-04
 57         7.3637405239e-06
 58        -3.6772142537e-04
 59         8.5190774574e-04
 60        -3.8293773712e-04
 61         2.8054041225e-05
 62         2.1744962526e-04
 63        -3.1863472595e-04
 64         1.0937844465e-03
 65         2.5337881349e-05
 66        -7.0211528478e-05
 67        -4.6022999924e-04
 Sym= A
 Ene=        -1.1238691115e+01
 Spin= Alpha
 Occup=         1.0000000000e+00
  1        -3.7671939335e-04
  2         4.2649622184e-07
  3        -3.5177218161e-06
  4        -1.0024567485e-04
  5        -2.5300520993e-05
  6        -1.5598476696e-04
  7         1.1510262702e-03
  8         2.9159136954e-04
  9         1.7980972603e-03
 10        -1.5415877386e-04
 11         8.6281081336e-05
 12        -2.5690123892e-05
 13         9.5437032137e-05
 14         1.5810258916e-05
 15         7.0533778780e-01
 16         4.0319623489e-03
 17        -6.6220725012e-03
 18        -7.3910566850e-06
 19         1.5387249225e-05
 20         1.0101590795e-04
 21         1.4223556124e-04
 22         1.5807011105e-04
 23         1.0180921347e-03
 24        -2.5005809880e-05
 25         1.1017391130e-05
 26        -3.1948919133e-06
 27         2.1953650586e-05
 28         2.2924360639e-06
 29        -2.8402171457e-07
 30        -1.3207241482e-06
 31        -1.5110164955e-05
 32        -4.0879752420e-06
 33        -2.5301247081e-05
 34        -2.3085607689e-04
 35         7.6053496298e-04
 36         4.0424070132e-04
 37         2.6754094791e-05
 38         1.3805076347e-04
 39        -1.4608512699e-04
 40         9.0319151777e-04
 41        -3.7383373693e-04
 42         2.0208628570e-05
 43         1.6544984758e-04
 44        -7.1243551635e-01
 45        -4.0698751450e-03
 46         6.6685723249e-03
 47         9.6106342250e-05
 48         7.0675450919e-06
 49         3.7430892849e-05
 50         8.6962553849e-04
 51         9.7843927698e-05
 52         5.5988046118e-04
 53        -2.9312668587e-05
 54         1.7974638100e-05
 55        -6.4432257491e-06
 56         8.0687094480e-06
 57         2.9618727801e-06
 58         1.4977938643e-04
 59        -9.1178957378e-04
 60         3.1483687391e-04
 61        -3.6418618746e-05
 62        -2.6586479930e-04
 63         2.3406649895e-04
 64        -7.7155838391e-04
 65        -4.6973922165e-05
 66         6.4553054531e-05
 67         4.2526936370e-04
 Sym= A
 Ene=        -1.1227709768e+01
 Spin= Alpha
 Occup=         1.0000000000e+00
  1         9.9901443114e-01
  2         3.3762396981e-03
  3        -8.2515910962e-03
  4         1.0106230297e-04
  5        -8.2904022601e-06
  6        -6.3340456651e-05
  7         8.6340700466e-04
  8        -7.1075871616e-05
  9        -5.4100373058e-04
 10         4.8820913178e-04
 11         6.0010323200e-05
 12         2.6317026297e-04
 13         8.2467696031e-04
 14         3.2559995604e-05
 15        -5.3370376490e-02
 16        -6.5330489537e-04
 17         2.2002497162e-03
 18         1.7624587464e-05
 19         1.3717200223e-05
 20         8.7845481974e-05
 21        -3.9877836749e-04
 22        -1.5294557330e-04
 23        -9.6163023252e-04
 24        -2.4384323539e-04
 25         8.6168104581e-05
 26        -1.0922979303e-04
 27        -2.8103718142e-04
 28         5.2165701155e-06
 29        -3.9721357934e-04
 30         9.5486041360e-04
 31         4.0886732635e-04
 32        -3.3617492608e-05
 33        -2.5620750410e-04
 34         9.9313971294e-05
 35         1.9915266006e-04
 36        -1.2009667475e-04
 37        -1.5799052283e-05
 38        -9.2210253875e-05
 39         9.8840273689e-05
 40         6.9648659418e-06
 41         1.6155473414e-04
 42        -1.6742354101e-05
 43        -1.2372923074e-04
 44        -5.3373271815e-02
 45        -6.5333027334e-04
 46         2.2002972993e-03
 47        -7.2720899628e-05
 48        -9.1752542397e-06
 49        -5.3326087836e-05
 50         7.0803410918e-04
 51         1.2751572750e-04
 52         7.6786335365e-04
 53        -7.8222694345e-05
 54        -5.2441881563e-06
 55        -8.1145974980e-05
 56        -3.8073839000e-04
 57        -1.1481149279e-05
 58         9.8841958535e-05
 59         6.9658115390e-06
 60         1.8210979786e-04
 61        -1.1533965596e-05
 62        -9.1614344912e-05
 63         9.9317556137e-05
 64         1.9915224700e-04
 65         3.2894081772e-05
 66         2.2969804020e-05
 67         1.4685643434e-04
 Sym= A
 Ene=        -1.0703828895e+00
 Spin= Alpha
 Occup=         1.0000000000e+00
  1         2.4327141877e-02
  2        -2.7379886535e-01
  3        -1.9323035225e-01
  4         5.7055411192e-02
  5        -4.6958034991e-03
  6        -3.5750037070e-02
  7         4.3983188252e-02
  8        -3.6186092467e-03
  9        -2.7560591815e-02
 10        -1.5672885732e-02
 11        -1.3925012495e-02
 12        -6.7810916873e-03
 13        -1.4750298946e-02
 14        -2.5571010699e-03
 15         1.4002955162e-02
 16        -2.3582851749e-01
 17        -1.3681526251e-01
 18         1.4949943777e-02
 19         1.3115905665e-02
 20         8.4194628368e-02
 21        -1.5974046425e-02
 22         1.1944807448e-03
 23         9.2302843851e-03
 24        -9.5182179213e-03
 25        -4.5333930173e-03
 26        -1.2365839535e-03
 27         9.0247158251e-03
 28        -4.4851847257e-04
 29        -1.0048064294e-01
 30        -1.7536871974e-02
 31         1.2819923012e-02
 32        -1.0543251790e-03
 33        -8.0331965864e-03
 34        -7.6737423662e-02
 35         4.2290856222e-03
 36         1.1390101404e-02
 37         1.3750453417e-03
 38         7.9412962119e-03
 39        -8.7975342155e-02
 40        -8.6077259733e-03
 41        -1.1184818440e-02
 42         1.3449419860e-03
 43         9.7786266869e-03
 44         1.4003121859e-02
 45        -2.3583011372e-01
 46        -1.3681597975e-01
 47        -7.0526538536e-02
 48        -8.5434667728e-03
 49        -4.9370396083e-02
 50        -1.5262316735e-02
 51         1.3748832355e-03
 52         1.0342895967e-02
 53         5.2698869903e-03
 54        -1.2694939635e-02
 55         1.2688098971e-03
 56         1.2324612012e-04
 57        -1.9407731252e-03
 58        -8.7975488976e-02
 59        -8.6079166674e-03
 60        -1.3715539505e-02
 61         7.0365324224e-04
 62         5.8241780924e-03
 63        -7.6737699842e-02
 64         4.2290491816e-03
 65        -2.3852466621e-03
 66        -2.1156108172e-03
 67        -1.3584007033e-02
 Sym= A
 Ene=        -9.4162898875e-01
 Spin= Alpha
 Occup=         1.0000000000e+00
  1        -3.3752925648e-09
  2        -2.7997149568e-07
  3         5.9934095013e-07
  4         1.1116527539e-01
  5         2.8169022379e-02
  6         1.7370731825e-01
  7         3.1653384826e-02
  8         8.0210448221e-03
  9         4.9462490893e-02
 10         1.8833212391e-02
 11        -1.0394076950e-02
 12         3.1912473871e-03
 13        -1.1336406210e-02
 14        -1.9001151435e-03
 15        -1.7253863558e-02
 16         2.8531527774e-01
 17         2.2271914920e-01
 18         1.7195165038e-02
 19        -1.9333876749e-03
 20        -1.4158008144e-02
 21        -2.6125639789e-03
 22        -1.8688215315e-04
 23        -9.8332187496e-04
 24         7.9680224984e-04
 25        -3.4645360798e-03
 26        -1.0254171839e-03
 27        -7.5881583954e-03
 28        -7.4318345645e-04
 29        -4.6171355945e-08
 30         1.3507180309e-07
 31         2.1452908102e-03
 32         5.4360426927e-04
 33         3.3521998421e-03
 34         1.4463313299e-01
 35         1.4461904865e-02
 36        -1.9117053040e-02
 37        -1.6142312569e-03
 38        -8.8048025783e-03
 39         1.2425514865e-01
 40         8.9508933919e-03
 41         1.5040440325e-02
 42        -1.4288393336e-03
 43        -1.0672924974e-02
 44         1.7253840110e-02
 45        -2.8531337084e-01
 46        -2.2271758953e-01
 47        -2.0286344707e-02
 48         1.1502638627e-03
 49         9.3282957552e-03
 50         2.1837042992e-04
 51        -4.1985812881e-04
 52        -2.7579230232e-03
 53         7.6188269265e-03
 54        -1.1800653123e-03
 55         2.4510965711e-03
 56         2.5223303303e-03
 57        -1.0608602905e-04
 58        -1.2425388657e-01
 59        -8.9508205262e-03
 60        -1.6180764291e-02
 61         1.1398107816e-03
 62         8.8906867941e-03
 63        -1.4463220785e-01
 64        -1.4462136859e-02
 65         1.2941279898e-04
 66        -3.1971960004e-03
 67        -2.0864973971e-02
 Sym= A
 Ene=        -7.5682533500e-01
 Spin= Alpha
 Occup=         1.0000000000e+00
  1         1.2469633214e-02
  2        -2.4317851313e-01
  3        -1.6880957834e-01
  4        -1.0719170826e-01
  5         8.8155350929e-03
  6         6.7169167739e-02
  7        -3.1266259070e-02
  8         2.5718508450e-03
  9         1.9591541689e-02
 10        -1.1398868703e-03
 11         4.8398812886e-03
 12        -1.3065222413e-03
 13        -6.7915456952e-03
 14         5.5149597033e-04
 15        -7.7488037064e-03
 16         1.3305032246e-01
 17         1.2438612579e-01
 18        -3.4925244596e-02
 19         2.8437689019e-02
 20         1.8861145560e-01
 21        -1.8923940313e-02
 22         1.0108050598e-02
 23         6.7629369283e-02
 24        -1.6912085012e-02
 25         1.5255636409e-03
 26        -4.3527419212e-03
 27         1.4309739425e-03
 28         2.6423937151e-04
 29        -2.4665377053e-01
 30        -5.5499968305e-02
 31         2.0870892072e-02
 32        -1.7163377801e-03
 33        -1.3078105325e-02
 34         1.1477024469e-01
 35         2.7511089144e-02
 36        -1.3193617985e-02
 37        -5.2984552866e-04
 38        -2.2665306406e-03
 39         1.7091370926e-01
 40         3.2773001240e-02
 41         1.6874920501e-02
 42        -9.8961795907e-04
 43        -7.9736107532e-03
 44        -7.7488898630e-03
 45         1.3305086639e-01
 46         1.2438619466e-01
 47        -1.8724360294e-01
 48        -1.0159327496e-02
 49        -4.9399999631e-02
 50        -6.9875519361e-02
 51        -2.8028168665e-03
 52        -1.1986773172e-02
 53         5.8098456626e-03
 54        -1.1014592174e-02
 55        -5.0288275078e-04
 56        -1.2246083488e-02
 57        -2.0283927700e-03
 58         1.7091504366e-01
 59         3.2773219523e-02
 60         1.4499372673e-02
 61        -1.5915978526e-03
 62        -1.1685937856e-02
 63         1.1477244060e-01
 64         2.7511680999e-02
 65        -3.5701521817e-03
 66         1.9087756103e-03
 67         1.2771266791e-02
 Sym= A
 Ene=        -6.4839078712e-01
 Spin= Alpha
 Occup=         1.0000000000e+00
  1        -8.8755038870e-04
  2         4.9761694280e-02
  3         4.7903627971e-02
  4        -2.1434754156e-01
  5         1.7631507091e-02
  6         1.3430983478e-01
  7        -8.4661197534e-02
  8         6.9641254451e-03
  9         5.3048661871e-02
 10        -9.3988669831e-04
 11        -4.1102775494e-03
 12         4.9033103980e-05
 13         2.3162143882e-03
 14        -5.6675401734e-04
 15         4.7325156787e-03
 16        -1.8692517530e-02
 17        -4.9920267561e-02
 18        -2.4469372230e-01
 19        -2.4687433839e-02
 20        -1.3895487719e-01
 21        -9.2531886313e-02
 22        -7.8052609283e-03
 23        -4.2565170413e-02
 24         9.7980318318e-03
 25         6.3057121391e-04
 26         2.1418222041e-03
 27        -3.3888395235e-03
 28         7.5005657914e-06
 29        -1.7340725752e-01
 30        -4.7956598258e-02
 31         1.0363589988e-02
 32        -8.5215659743e-04
 33        -6.4941584399e-03
 34        -2.2643803705e-01
 35        -6.4199537261e-02
 36         1.6094378120e-02
 37         1.2789316385e-03
 38         6.8904915683e-03
 39         7.2877507283e-02
 40         1.6944649173e-02
 41         1.5790392569e-04
 42        -1.1242228246e-03
 43        -7.3456642877e-03
 44         4.7326188955e-03
 45        -1.8692421320e-02
 46        -4.9921291671e-02
 47         2.2336092920e-02
 48         4.2975432233e-02
 49         2.7829292054e-01
 50        -6.7259868276e-04
 51         1.5471071259e-02
 52         1.0097005608e-01
 53        -4.0980501927e-03
 54         8.3000749145e-03
 55        -2.1287259912e-04
 56         4.9757882070e-03
 57         1.4095536101e-03
 58         7.2870700698e-02
 59         1.6942815558e-02
 60         6.7778736140e-03
 61         5.5344023817e-04
 62         2.9997800563e-03
 63        -2.2643741656e-01
 64        -6.4199438648e-02
 65         5.8612770327e-04
 66        -2.6508893897e-03
 67        -1.7342753993e-02
 Sym= A
 Ene=        -5.9800198146e-01
 Spin= Alpha
 Occup=         1.0000000000e+00
  1        -1.9392084693e-08
  2         1.3982715743e-06
  3         1.9537534239e-06
  4         1.5388796874e-01
  5         3.8995772090e-02
  6         2.4047245053e-01
  7         5.0604509035e-02
  8         1.2823488388e-02
  9         7.9077690047e-02
 10         3.4363076752e-03
 11        -1.8966738149e-03
 12         5.8258085971e-04
 13        -2.0684462929e-03
 14        -3.4652256435e-04
 15         4.0309892447e-03
 16        -3.8481901025e-04
 17        -2.1366123858e-02
 18         1.8282400263e-01
 19        -3.8445954924e-02
 20        -2.6719580282e-01
 21         7.3030295940e-02
 22        -1.5868458184e-02
 23        -1.1006586684e-01
 24         1.2626603416e-02
 25         5.7221026851e-03
 26         2.7080321711e-03
 27        -5.1510014290e-03
 28         7.4102915774e-04
 29        -1.8385812815e-06
 30        -5.3413546448e-07
 31         3.1262204614e-03
 32         7.9213606949e-04
 33         4.8847930502e-03
 34         3.0402746677e-02
 35         9.7468348499e-03
 36         1.6356878896e-03
 37        -1.1050726075e-03
 38        -7.3539795536e-03
 39        -2.4680603278e-01
 40        -7.7476691328e-02
 41        -1.6528212465e-02
 42         9.9462356278e-04
 43         7.9752468033e-03
 44        -4.0307948252e-03
 45         3.8353250632e-04
 46         2.1364121657e-02
 47        -3.2226496067e-01
 48         3.1123632943e-03
 49         4.9308974380e-02
 50        -1.3177548219e-01
 51         9.8270734557e-04
 52         1.8272074387e-02
 53         2.5603157479e-03
 54        -1.4103554537e-02
 55        -1.3445991947e-04
 56        -3.9904961663e-03
 57        -2.2730931945e-03
 58         2.4680689270e-01
 59         7.7477102526e-02
 60         1.4352658267e-02
 61        -1.5458804597e-03
 62        -1.1374788803e-02
 63        -3.0408275534e-02
 64        -9.7488515291e-03
 65        -7.4177028028e-03
 66        -3.6014952158e-04
 67        -1.6813866219e-03
 Sym= A
 Ene=        -5.3844395778e-01
 Spin= Alpha
 Occup=         1.0000000000e+00
  1        -1.0854438211e-07
  2         4.4346685161e-07
  3         1.9188224493e-06
  4         1.3129879389e-01
  5         3.3267659124e-02
  6         2.0514978198e-01
  7         3.2692851915e-02
  8         8.2833319169e-03
  9         5.1080637334e-02
 10         2.3613426075e-02
 11        -1.3033566809e-02
 12         4.0007008273e-03
 13        -1.4213632113e-02
 14        -2.3828998869e-03
 15         5.7440407539e-04
 16         3.6069063698e-02
 17         5.3828715119e-02
 18        -2.6050733318e-01
 19        -3.4918201092e-02
 20        -2.0424537046e-01
 21        -1.1604050107e-01
 22        -1.6866498919e-02
 23        -9.9536932444e-02
 24         1.2672077895e-02
 25        -1.7377241005e-02
 26         1.9527454673e-03
 27        -7.9085860024e-03
 28        -2.8794677311e-03
 29         1.0282756162e-05
 30         5.0856567386e-06
 31         4.8256542347e-03
 32         1.2229475748e-03
 33         7.5415620310e-03
 34        -2.6323099345e-01
 35        -1.0581121711e-01
 36         1.4114110719e-02
 37         1.2244454877e-03
 38         6.7138154378e-03
 39         1.0197904909e-01
 40         4.3332916976e-02
 41         3.0825725146e-04
 42        -1.6114350785e-03
 43        -1.0536593266e-02
 44        -5.7439497579e-04
 45        -3.6072145412e-02
 46        -5.3832375725e-02
 47        -7.5227421353e-02
 48        -5.0153376259e-02
 49        -3.2034840639e-01
 50        -4.1326466056e-02
 51        -2.3009138488e-02
 52        -1.4635562096e-01
 53         1.9739054750e-02
 54        -5.1206963654e-04
 55         3.5386166455e-03
 56        -1.1600569985e-02
 57        -3.9126680817e-04
 58        -1.0196690514e-01
 59        -4.3327365610e-02
 60        -9.7571384921e-03
 61        -7.8310655955e-04
 62        -4.2293731930e-03
 63         2.6322418095e-01
 64         1.0580810022e-01
 65         9.8848353554e-05
 66         2.3771306683e-03
 67         1.5495509092e-02
 Sym= A
 Ene=        -5.0741715283e-01
 Spin= Alpha
 Occup=         1.0000000000e+00
  1         2.5415496632e-03
  2         7.1048764027e-03
  3        -7.0803148765e-03
  4        -2.6157240409e-01
  5         2.1512631526e-02
  6         1.6391485406e-01
  7        -9.8062495221e-02
  8         8.0648142092e-03
  9         6.1450390321e-02
 10         1.5209165042e-02
 11         3.8072798911e-02
 12         3.1660062371e-03
 13        -9.6868252873e-03
 14         5.5775320370e-03
 15         1.0038628800e-03
 16         3.9781887156e-02
 17         4.5372695070e-02
 18         1.8146487713e-01
 19        -2.3838684129e-02
 20        -1.7176455578e-01
 21         8.0829866597e-02
 22        -9.9458370554e-03
 23        -7.2110506270e-02
 24         1.4321451267e-03
 25         3.1003314853e-02
 26         2.7440937980e-04
 27        -3.5939660328e-03
 28         4.6561264538e-03
 29        -3.1806158240e-01
 30        -1.6509887730e-01
 31         1.3296376338e-02
 32        -1.0935131912e-03
 33        -8.3314715795e-03
 34         1.0717309449e-01
 35         5.0942187670e-02
 36        -7.4805908553e-04
 37        -1.4321978590e-03
 38        -9.2713204296e-03
 39        -2.0984263703e-01
 40        -1.0650698494e-01
 41        -6.6322549654e-03
 42         9.5580325801e-04
 43         6.8322123988e-03
 44         1.0038128871e-03
 45         3.9779816982e-02
 46         4.5368804574e-02
 47         2.3449964440e-01
 48        -1.0401852355e-02
 49        -8.8904887071e-02
 50         1.0043457574e-01
 51        -4.9790928349e-03
 52        -4.1482500163e-02
 53         1.7776317971e-02
 54         2.1984163922e-02
 55         3.0423524280e-03
 56        -1.3431735316e-02
 57         3.0062963299e-03
 58        -2.0984958204e-01
 59        -1.0651010369e-01
 60        -9.0778328299e-03
 61         3.3617326885e-04
 62         3.0113327329e-03
 63         1.0718893660e-01
 64         5.0949248236e-02
 65         8.1502704517e-03
 66         8.2273674676e-04
 67         4.6339412096e-03
 Sym= A
 Ene=        -4.5640467371e-01
 Spin= Alpha
 Occup=         1.0000000000e+00
  1        -2.2449103700e-07
  2         2.3119033031e-06
  3         3.4646514834e-06
  4         3.4330714988e-03
  5        -2.4807208042e-01
  6         3.8030552366e-02
  7         1.7306476513e-03
  8        -1.2500800838e-01
  9         1.9163935418e-02
 10         2.5018016020e-03
 11        -2.1756212990e-03
 12        -9.2304445791e-03
 13         1.0300744194e-03
 14         1.5050754574e-02
 15        -1.2602070453e-07
 16        -1.0093790843e-06
 17         3.0556285665e-07
 18         4.9069910385e-03
 19        -3.5545398823e-01
 20         5.4508886227e-02
 21         3.5728359379e-03
 22        -2.5879707005e-01
 23         3.9684694842e-02
 24        -4.9964210603e-03
 25        -4.1003066359e-04
 26         1.8368488619e-02
 27        -2.9115896297e-03
 28         9.3485385216e-04
 29         7.5090340331e-06
 30         4.3100343859e-06
 31         1.2678003546e-04
 32        -9.1852113125e-03
 33         1.4083504879e-03
 34        -2.1474709957e-06
 35        -7.1121687014e-07
 36         1.5083804990e-04
 37        -1.0916985686e-02
 38         1.6741813240e-03
 39         4.0127711886e-06
 40         2.4923121201e-06
 41         1.5655131596e-04
 42        -1.1325075133e-02
 43         1.7364720975e-03
 44        -1.4043313891e-07
 45        -1.2585856745e-06
 46        -3.2540957329e-07
 47         4.9009129232e-03
 48        -3.5545447058e-01
 49         5.4499692221e-02
 50         3.5698564792e-03
 51        -2.5879678216e-01
 52         3.9680237060e-02
 53         2.3671302531e-03
 54         2.6938086631e-03
 55        -8.6706180773e-03
 56         1.8302212116e-03
 57        -1.6748153175e-02
 58         4.4668861426e-06
 59         2.6662792992e-06
 60         1.5648303207e-04
 61        -1.1325051663e-02
 62         1.7362776670e-03
 63        -2.5148189161e-06
 64        -9.3088167077e-07
 65         1.5051253711e-04
 66        -1.0917025483e-02
 67         1.6736808552e-03
 Sym= A
 Ene=        -3.3462211459e-01
 Spin= Alpha
 Occup=         1.0000000000e+00
  1        -1.2220865743e-08
  2        -1.7543810197e-07
  3        -1.6351804582e-08
  4        -5.2487713938e-07
  5         1.9209489714e-06
  6        -1.2938315144e-06
  7        -4.7965735871e-07
  8         1.3169625778e-06
  9        -7.6960779098e-07
 10         9.4386539189e-03
 11         3.9781741537e-03
 12        -3.4657337728e-02
 13         6.0775005236e-03
 14        -2.2665254845e-02
 15        -3.8174222576e-08
 16        -2.2931740243e-07
 17         2.6656461466e-07
 18         5.9112664629e-03
 19        -4.2788840293e-01
 20         6.5612642413e-02
 21         5.2698214343e-03
 22        -3.8145198157e-01
 23         5.8491567373e-02
 24        -1.1257128776e-03
 25         1.9209004943e-04
 26         4.1422419923e-03
 27        -6.0476714109e-04
 28        -1.6430767588e-03
 29        -5.2926006801e-08
 30         3.4686597656e-08
 31        -6.2437702776e-09
 32         7.4403426541e-08
 33        -2.0281689063e-08
 34         1.5965245914e-07
 35         2.5083267473e-07
 36         2.0012885910e-04
 37        -1.4487183974e-02
 38         2.2214959112e-03
 39        -8.3114160916e-07
 40         1.1841791286e-09
 41         1.8647883260e-04
 42        -1.3504701178e-02
 43         2.0708653622e-03
 44         5.2776835233e-08
 45         7.9183674729e-07
 46         9.1391801970e-07
 47        -5.9045834388e-03
 48         4.2788892205e-01
 49        -6.5602377892e-02
 50        -5.2642767015e-03
 51         3.8145197077e-01
 52        -5.8483182526e-02
 53        -9.3076981993e-05
 54        -7.0567978560e-04
 55         3.3232419523e-04
 56        -1.7988955631e-04
 57         4.5695167374e-03
 58         4.6574606538e-07
 59        -1.0042625968e-07
 60        -1.8630657539e-04
 61         1.3504683018e-02
 62        -2.0705301573e-03
 63        -7.1106637309e-07
 64        -6.4875805165e-07
 65        -1.9989417063e-04
 66         1.4487176063e-02
 67        -2.2211719589e-03
 Sym= A
 Ene=         1.9797327575e-01
 Spin= Alpha
 Occup=         0.0000000000e+00
  1         2.4429506780e-02
  2        -1.0892135576e-02
  3        -7.4189417546e-01
  4        -1.1431727739e-01
  5         9.3920467723e-03
  6         7.1635078472e-02
  7        -4.6132213970e-01
  8         3.7916648705e-02
  9         2.8908145266e-01
 10        -2.9384267101e-03
 11         8.5528621840e-04
 12        -1.7524778469e-03
 13        -6.1516406318e-03
 14        -4.3390775316e-05
 15         4.0334776337e-02
 16        -5.9380011545e-02
 17        -1.1941743343e+00
 18        -3.4811917697e-02
 19        -1.5769686108e-02